LAMMPS data file. CGCMM style. atom_style full generated by VMD/TopoTools v1.7 on Tue Mar 18 16:20:14 MSK 2025
 4558 atoms
 4705 bonds
 0 angles
 0 dihedrals
 0 impropers
 82 atom types
 1 bond types
 0 angle types
 0 dihedral types
 0 improper types
 -13.294999 49.855003  xlo xhi
 -28.497998 55.091998  ylo yhi
 13.353122 66.439877  zlo zhi
 0.000000 -8.731345 0.000000 xy xz yz

# Pair Coeffs
#
# 1  C
# 2  C1A
# 3  C1B
# 4  C1C
# 5  C1D
# 6  C2A
# 7  C2B
# 8  C2C
# 9  C2D
# 10  C3A
# 11  C3B
# 12  C3C
# 13  C3D
# 14  C4A
# 15  C4B
# 16  C4C
# 17  C4D
# 18  CA
# 19  CAA
# 20  CAB
# 21  CAC
# 22  CAD
# 23  CB
# 24  CBA
# 25  CBB
# 26  CBC
# 27  CBD
# 28  CD
# 29  CD1
# 30  CD2
# 31  CE
# 32  CE1
# 33  CE2
# 34  CE3
# 35  CG
# 36  CG1
# 37  CG2
# 38  CGA
# 39  CGD
# 40  CH2
# 41  CHA
# 42  CHB
# 43  CHC
# 44  CHD
# 45  CMA
# 46  CMB
# 47  CMC
# 48  CMD
# 49  CZ
# 50  CZ2
# 51  CZ3
# 52  FE
# 53  N
# 54  NA
# 55  NB
# 56  NC
# 57  ND
# 58  ND1
# 59  ND2
# 60  NE
# 61  NE1
# 62  NE2
# 63  NH1
# 64  NH2
# 65  NZ
# 66  O
# 67  O1
# 68  O1A
# 69  O1D
# 70  O2
# 71  O2A
# 72  O2D
# 73  OD1
# 74  OD2
# 75  OE1
# 76  OE2
# 77  OG
# 78  OG1
# 79  OH
# 80  OXT
# 81  SD
# 82  SG

# Bond Coeffs
#
# 1  

 Masses

 1 12.010700 # C
 2 12.010700 # C1A
 3 12.010700 # C1B
 4 12.010700 # C1C
 5 12.010700 # C1D
 6 12.010700 # C2A
 7 12.010700 # C2B
 8 12.010700 # C2C
 9 12.010700 # C2D
 10 12.010700 # C3A
 11 12.010700 # C3B
 12 12.010700 # C3C
 13 12.010700 # C3D
 14 12.010700 # C4A
 15 12.010700 # C4B
 16 12.010700 # C4C
 17 12.010700 # C4D
 18 12.010700 # CA
 19 12.010700 # CAA
 20 12.010700 # CAB
 21 12.010700 # CAC
 22 12.010700 # CAD
 23 12.010700 # CB
 24 12.010700 # CBA
 25 12.010700 # CBB
 26 12.010700 # CBC
 27 12.010700 # CBD
 28 12.010700 # CD
 29 12.010700 # CD1
 30 12.010700 # CD2
 31 12.010700 # CE
 32 12.010700 # CE1
 33 12.010700 # CE2
 34 12.010700 # CE3
 35 12.010700 # CG
 36 12.010700 # CG1
 37 12.010700 # CG2
 38 12.010700 # CGA
 39 12.010700 # CGD
 40 12.010700 # CH2
 41 12.010700 # CHA
 42 12.010700 # CHB
 43 12.010700 # CHC
 44 12.010700 # CHD
 45 12.010700 # CMA
 46 12.010700 # CMB
 47 12.010700 # CMC
 48 12.010700 # CMD
 49 12.010700 # CZ
 50 12.010700 # CZ2
 51 12.010700 # CZ3
 52 55.845001 # FE
 53 14.006700 # N
 54 14.006700 # NA
 55 14.006700 # NB
 56 14.006700 # NC
 57 14.006700 # ND
 58 14.006700 # ND1
 59 14.006700 # ND2
 60 14.006700 # NE
 61 14.006700 # NE1
 62 14.006700 # NE2
 63 14.006700 # NH1
 64 14.006700 # NH2
 65 14.006700 # NZ
 66 15.999400 # O
 67 15.999400 # O1
 68 15.999400 # O1A
 69 15.999400 # O1D
 70 15.999400 # O2
 71 15.999400 # O2A
 72 15.999400 # O2D
 73 15.999400 # OD1
 74 15.999400 # OD2
 75 15.999400 # OE1
 76 15.999400 # OE2
 77 15.999400 # OG
 78 15.999400 # OG1
 79 15.999400 # OH
 80 15.999400 # OXT
 81 32.064999 # SD
 82 32.064999 # SG

 Atoms # full

1 1 53 0.000000 19.205999 29.437000 42.865002 # N VAL
2 1 18 0.000000 20.110001 30.509001 42.508999 # CA VAL
3 1 1 0.000000 21.573999 30.054001 42.654999 # C VAL
4 1 66 0.000000 21.993999 29.507000 43.686001 # O VAL
5 1 23 0.000000 19.813999 31.639000 43.472000 # CB VAL
6 1 36 0.000000 20.400999 32.946999 42.946999 # CG1 VAL
7 1 37 0.000000 18.302000 31.740999 43.687000 # CG2 VAL
8 2 53 0.000000 22.334999 30.304001 41.625000 # N LEU
9 2 18 0.000000 23.767000 29.999001 41.741001 # CA LEU
10 2 1 0.000000 24.466000 31.150999 42.512001 # C LEU
11 2 66 0.000000 24.393999 32.313000 42.102001 # O LEU
12 2 23 0.000000 24.356001 29.941999 40.319000 # CB LEU
13 2 35 0.000000 23.837999 28.827000 39.433998 # CG LEU
14 2 29 0.000000 24.511000 28.781000 38.041000 # CD1 LEU
15 2 30 0.000000 23.961000 27.502001 40.173000 # CD2 LEU
16 3 53 0.000000 25.097000 30.830000 43.596001 # N SER
17 3 18 0.000000 25.917000 31.795000 44.340000 # CA SER
18 3 1 0.000000 27.177000 32.080002 43.523998 # C SER
19 3 66 0.000000 27.480000 31.365999 42.566002 # O SER
20 3 23 0.000000 26.323999 31.129000 45.666000 # CB SER
21 3 77 0.000000 27.292999 30.131001 45.459000 # OG SER
22 4 53 0.000000 27.921000 33.144001 43.839001 # N PRO
23 4 18 0.000000 29.160000 33.480000 43.102001 # CA PRO
24 4 1 0.000000 30.188999 32.377998 43.243999 # C PRO
25 4 66 0.000000 30.922001 32.089001 42.287998 # O PRO
26 4 23 0.000000 29.757000 34.738998 43.736000 # CB PRO
27 4 35 0.000000 28.636999 35.286999 44.598000 # CG PRO
28 4 28 0.000000 27.573999 34.193001 44.793999 # CD PRO
29 5 53 0.000000 30.177999 31.768000 44.449001 # N ALA
30 5 18 0.000000 31.077000 30.658001 44.691002 # CA ALA
31 5 1 0.000000 30.672001 29.489000 43.756001 # C ALA
32 5 66 0.000000 31.563000 28.854000 43.175999 # O ALA
33 5 23 0.000000 31.056999 30.260000 46.195000 # CB ALA
34 6 53 0.000000 29.334000 29.236000 43.597000 # N ASP
35 6 18 0.000000 28.955999 28.212000 42.605999 # CA ASP
36 6 1 0.000000 29.514999 28.538000 41.226002 # C ASP
37 6 66 0.000000 30.011000 27.597000 40.570999 # O ASP
38 6 23 0.000000 27.474001 28.020000 42.459000 # CB ASP
39 6 35 0.000000 26.834999 27.416000 43.695000 # CG ASP
40 6 73 0.000000 27.429001 26.523001 44.312000 # OD1 ASP
41 6 74 0.000000 25.743999 27.888000 44.009998 # OD2 ASP
42 7 53 0.000000 29.414000 29.820000 40.855000 # N LYS
43 7 18 0.000000 29.902000 30.162001 39.484001 # CA LYS
44 7 1 0.000000 31.402000 29.955000 39.303001 # C LYS
45 7 66 0.000000 31.851000 29.469000 38.247002 # O LYS
46 7 23 0.000000 29.496000 31.577999 39.153000 # CB LYS
47 7 35 0.000000 28.000000 31.747000 39.327999 # CG LYS
48 7 28 0.000000 27.618999 33.202000 39.102001 # CD LYS
49 7 31 0.000000 26.299999 33.500999 39.770000 # CE LYS
50 7 65 0.000000 26.058001 34.929001 39.589001 # NZ LYS
51 8 53 0.000000 32.134998 30.260000 40.395000 # N THR
52 8 18 0.000000 33.588001 30.031000 40.367001 # CA THR
53 8 1 0.000000 33.915001 28.549000 40.206001 # C THR
54 8 66 0.000000 34.799000 28.190001 39.418999 # O THR
55 8 23 0.000000 34.180000 30.597000 41.674000 # CB THR
56 8 78 0.000000 34.015999 31.993000 41.653000 # OG1 THR
57 8 37 0.000000 35.646000 30.294001 41.784000 # CG2 THR
58 9 53 0.000000 33.167000 27.705999 40.948002 # N ASN
59 9 18 0.000000 33.319000 26.260000 40.908001 # CA ASN
60 9 1 0.000000 33.009998 25.639000 39.515999 # C ASN
61 9 66 0.000000 33.700001 24.749001 39.048000 # O ASN
62 9 23 0.000000 32.455002 25.601000 41.999001 # CB ASN
63 9 35 0.000000 32.987999 25.893999 43.416000 # CG ASN
64 9 73 0.000000 34.125000 26.330000 43.623001 # OD1 ASN
65 9 59 0.000000 32.148998 25.662001 44.396999 # ND2 ASN
66 10 53 0.000000 31.934999 26.073000 38.908001 # N VAL
67 10 18 0.000000 31.552999 25.572001 37.597000 # CA VAL
68 10 1 0.000000 32.604000 26.013000 36.550999 # C VAL
69 10 66 0.000000 33.018002 25.216999 35.693001 # O VAL
70 10 23 0.000000 30.159000 26.101000 37.285999 # CB VAL
71 10 36 0.000000 29.753000 25.723000 35.876999 # CG1 VAL
72 10 37 0.000000 29.112000 25.624001 38.252998 # CG2 VAL
73 11 53 0.000000 33.007000 27.277000 36.639999 # N LYS
74 11 18 0.000000 34.050999 27.790001 35.682999 # CA LYS
75 11 1 0.000000 35.370998 27.030001 35.827999 # C LYS
76 11 66 0.000000 36.051998 26.716999 34.833000 # O LYS
77 11 23 0.000000 34.292999 29.254999 35.882000 # CB LYS
78 11 35 0.000000 33.101002 29.950001 35.344002 # CG LYS
79 11 28 0.000000 33.130001 31.438000 35.596001 # CD LYS
80 11 31 0.000000 31.900000 32.062000 34.917999 # CE LYS
81 11 65 0.000000 31.864000 33.514000 35.155998 # NZ LYS
82 12 53 0.000000 35.650002 26.659000 37.050999 # N ALA
83 12 18 0.000000 36.924000 26.041000 37.196999 # CA ALA
84 12 1 0.000000 36.852001 24.599001 36.717999 # C ALA
85 12 66 0.000000 37.757000 24.073000 36.062000 # O ALA
86 12 23 0.000000 37.263000 26.045000 38.686001 # CB ALA
87 13 53 0.000000 35.755001 23.955999 37.016998 # N ALA
88 13 18 0.000000 35.702000 22.563999 36.590000 # CA ALA
89 13 1 0.000000 35.576000 22.426001 35.042000 # C ALA
90 13 66 0.000000 36.096001 21.493999 34.396000 # O ALA
91 13 23 0.000000 34.457001 21.981001 37.271999 # CB ALA
92 14 53 0.000000 34.797001 23.355000 34.486000 # N TRP
93 14 18 0.000000 34.493999 23.179001 33.070000 # CA TRP
94 14 1 0.000000 35.743000 23.612000 32.284000 # C TRP
95 14 66 0.000000 36.057999 23.115000 31.188000 # O TRP
96 14 23 0.000000 33.234001 24.014000 32.771000 # CB TRP
97 14 35 0.000000 32.672001 23.660000 31.417000 # CG TRP
98 14 29 0.000000 32.828999 24.351999 30.195999 # CD1 TRP
99 14 30 0.000000 31.885000 22.532000 31.132999 # CD2 TRP
100 14 61 0.000000 32.134998 23.653000 29.181999 # NE1 TRP
101 14 33 0.000000 31.582001 22.555000 29.738001 # CE2 TRP
102 14 34 0.000000 31.431999 21.507000 31.931999 # CE3 TRP
103 14 50 0.000000 30.855000 21.583000 29.091000 # CZ2 TRP
104 14 51 0.000000 30.688000 20.517000 31.278000 # CZ3 TRP
105 14 40 0.000000 30.419001 20.552000 29.898001 # CH2 TRP
106 15 53 0.000000 36.458000 24.518999 32.935001 # N GLY
107 15 18 0.000000 37.754002 24.962000 32.401001 # CA GLY
108 15 1 0.000000 38.638000 23.733000 32.185001 # C GLY
109 15 66 0.000000 39.217999 23.594000 31.097000 # O GLY
110 16 53 0.000000 38.709999 22.879000 33.192001 # N LYS
111 16 18 0.000000 39.477001 21.620001 33.123001 # CA LYS
112 16 1 0.000000 38.952999 20.715000 32.007000 # C LYS
113 16 66 0.000000 39.734001 19.947001 31.436001 # O LYS
114 16 23 0.000000 39.467999 20.820000 34.448002 # CB LYS
115 16 35 0.000000 40.463001 19.645000 34.380001 # CG LYS
116 16 28 0.000000 41.950001 20.069000 34.354000 # CD LYS
117 16 31 0.000000 42.881001 18.896999 33.999001 # CE LYS
118 16 65 0.000000 42.533001 17.719000 34.792000 # NZ LYS
119 17 53 0.000000 37.641998 20.820000 31.733999 # N VAL
120 17 18 0.000000 37.006001 19.878000 30.836000 # CA VAL
121 17 1 0.000000 37.599998 20.246000 29.485001 # C VAL
122 17 66 0.000000 38.063000 19.358000 28.777000 # O VAL
123 17 23 0.000000 35.485001 19.934000 30.877001 # CB VAL
124 17 36 0.000000 34.900002 19.479000 29.562000 # CG1 VAL
125 17 37 0.000000 34.846001 19.252001 32.112999 # CG2 VAL
126 18 53 0.000000 37.650002 21.563000 29.278999 # N GLY
127 18 18 0.000000 38.289001 22.159000 28.106001 # CA GLY
128 18 1 0.000000 37.803001 21.492001 26.823000 # C GLY
129 18 66 0.000000 36.627998 21.622999 26.438999 # O GLY
130 19 53 0.000000 38.738998 20.759001 26.257999 # N ALA
131 19 18 0.000000 38.650002 20.377001 24.848000 # CA ALA
132 19 1 0.000000 38.013000 19.000999 24.711000 # C ALA
133 19 66 0.000000 37.661999 18.552999 23.611000 # O ALA
134 19 23 0.000000 40.058998 20.414000 24.212000 # CB ALA
135 20 53 0.000000 37.808998 18.364000 25.837000 # N HIS
136 20 18 0.000000 37.173000 17.055000 25.868000 # CA HIS
137 20 1 0.000000 35.657001 17.219000 25.966000 # C HIS
138 20 66 0.000000 34.969002 16.219000 26.174000 # O HIS
139 20 23 0.000000 37.590000 16.340000 27.127001 # CB HIS
140 20 35 0.000000 39.071999 15.991000 27.099001 # CG HIS
141 20 58 0.000000 39.627998 15.072000 26.181999 # ND1 HIS
142 20 30 0.000000 40.056999 16.483999 27.893000 # CD2 HIS
143 20 32 0.000000 41.000000 15.006000 26.441000 # CE1 HIS
144 20 62 0.000000 41.265999 15.873000 27.495001 # NE2 HIS
145 21 53 0.000000 35.202999 18.450001 25.825001 # N ALA
146 21 18 0.000000 33.800999 18.690001 26.190001 # CA ALA
147 21 1 0.000000 32.896999 17.798000 25.318001 # C ALA
148 21 66 0.000000 31.965000 17.160999 25.809000 # O ALA
149 21 23 0.000000 33.445999 20.188000 26.177999 # CB ALA
150 22 53 0.000000 33.221001 17.698000 24.063999 # N GLY
151 22 18 0.000000 32.382000 16.920000 23.188999 # CA GLY
152 22 1 0.000000 32.467999 15.423000 23.424000 # C GLY
153 22 66 0.000000 31.495001 14.715000 23.202000 # O GLY
154 23 53 0.000000 33.618000 14.937000 23.802000 # N GLU
155 23 18 0.000000 33.797001 13.497000 24.042000 # CA GLU
156 23 1 0.000000 33.021000 13.164000 25.348000 # C GLU
157 23 66 0.000000 32.439999 12.088000 25.493999 # O GLU
158 23 23 0.000000 35.320000 13.384000 24.167000 # CB GLU
159 23 35 0.000000 35.962002 12.022000 24.285000 # CG GLU
160 23 28 0.000000 37.431999 12.325000 24.655001 # CD GLU
161 23 75 0.000000 37.792000 12.028000 25.816000 # OE1 GLU
162 23 76 0.000000 38.158001 12.927000 23.830999 # OE2 GLU
163 24 53 0.000000 33.066002 14.083000 26.280001 # N TYR
164 24 18 0.000000 32.380001 13.899000 27.548000 # CA TYR
165 24 1 0.000000 30.877001 13.954000 27.309000 # C TYR
166 24 66 0.000000 30.153999 13.193000 27.957001 # O TYR
167 24 23 0.000000 32.722000 14.947000 28.631001 # CB TYR
168 24 35 0.000000 34.167000 14.785000 29.166000 # CG TYR
169 24 29 0.000000 34.680000 15.618000 30.129000 # CD1 TYR
170 24 30 0.000000 34.948002 13.768000 28.665001 # CD2 TYR
171 24 32 0.000000 35.997002 15.456000 30.565001 # CE1 TYR
172 24 33 0.000000 36.257000 13.598000 29.086000 # CE2 TYR
173 24 49 0.000000 36.778000 14.464000 30.032000 # CZ TYR
174 24 79 0.000000 38.127998 14.445000 30.285000 # OH TYR
175 25 53 0.000000 30.437000 14.911000 26.471001 # N GLY
176 25 18 0.000000 29.011000 14.985000 26.059999 # CA GLY
177 25 1 0.000000 28.521000 13.657000 25.465000 # C GLY
178 25 66 0.000000 27.420000 13.190000 25.764999 # O GLY
179 26 53 0.000000 29.271999 13.035000 24.569000 # N ALA
180 26 18 0.000000 28.830000 11.769000 24.042999 # CA ALA
181 26 1 0.000000 28.785000 10.609000 25.049999 # C ALA
182 26 66 0.000000 27.917999 9.733000 25.035999 # O ALA
183 26 23 0.000000 29.781000 11.336000 22.978001 # CB ALA
184 27 53 0.000000 29.785999 10.603000 25.915001 # N GLU
185 27 18 0.000000 29.823000 9.566000 26.931999 # CA GLU
186 27 1 0.000000 28.614000 9.715000 27.865000 # C GLU
187 27 66 0.000000 28.007999 8.704000 28.212999 # O GLU
188 27 23 0.000000 31.167000 9.716000 27.687000 # CB GLU
189 27 35 0.000000 31.231001 8.715000 28.822001 # CG GLU
190 27 28 0.000000 32.529999 8.804000 29.655001 # CD GLU
191 27 75 0.000000 32.443001 8.537000 30.850000 # OE1 GLU
192 27 76 0.000000 33.601002 9.083000 29.103001 # OE2 GLU
193 28 53 0.000000 28.253000 10.934000 28.267000 # N ALA
194 28 18 0.000000 27.087999 11.108000 29.153000 # CA ALA
195 28 1 0.000000 25.820999 10.619000 28.444000 # C ALA
196 28 66 0.000000 24.917000 10.046000 29.059000 # O ALA
197 28 23 0.000000 26.909000 12.581000 29.488001 # CB ALA
198 29 53 0.000000 25.730000 10.921000 27.117001 # N LEU
199 29 18 0.000000 24.537001 10.376000 26.375000 # CA LEU
200 29 1 0.000000 24.493999 8.852000 26.410000 # C LEU
201 29 66 0.000000 23.436001 8.263000 26.664000 # O LEU
202 29 23 0.000000 24.533001 10.847000 24.877001 # CB LEU
203 29 35 0.000000 24.384001 12.349000 24.750000 # CG LEU
204 29 29 0.000000 24.693001 12.740000 23.316999 # CD1 LEU
205 29 30 0.000000 22.931999 12.670000 25.093000 # CD2 LEU
206 30 53 0.000000 25.631001 8.213000 26.099001 # N GLU
207 30 18 0.000000 25.649000 6.748000 26.118999 # CA GLU
208 30 1 0.000000 25.343000 6.185000 27.517000 # C GLU
209 30 66 0.000000 24.677000 5.157000 27.618000 # O GLU
210 30 23 0.000000 26.990999 6.286000 25.624001 # CB GLU
211 30 35 0.000000 27.142000 4.805000 25.766001 # CG GLU
212 30 28 0.000000 28.424999 4.363000 25.035000 # CD GLU
213 30 75 0.000000 29.332001 5.191000 24.834000 # OE1 GLU
214 30 76 0.000000 28.497999 3.168000 24.724001 # OE2 GLU
215 31 53 0.000000 25.823000 6.881000 28.563999 # N ARG
216 31 18 0.000000 25.476999 6.460000 29.931000 # CA ARG
217 31 1 0.000000 23.966999 6.524000 30.171000 # C ARG
218 31 66 0.000000 23.417000 5.570000 30.763000 # O ARG
219 31 23 0.000000 26.212000 7.241000 30.986000 # CB ARG
220 31 35 0.000000 27.709000 6.912000 31.003000 # CG ARG
221 31 28 0.000000 28.434000 7.812000 31.999001 # CD ARG
222 31 60 0.000000 29.917000 7.541000 32.133999 # NE ARG
223 31 49 0.000000 30.433001 6.503000 32.764999 # CZ ARG
224 31 63 0.000000 29.677999 5.610000 33.415001 # NH1 ARG
225 31 64 0.000000 31.750000 6.331000 32.660000 # NH2 ARG
226 32 53 0.000000 23.389999 7.625000 29.684999 # N MET
227 32 18 0.000000 21.954000 7.806000 29.819000 # CA MET
228 32 1 0.000000 21.160999 6.717000 29.077000 # C MET
229 32 66 0.000000 20.221001 6.121000 29.622999 # O MET
230 32 23 0.000000 21.566000 9.196000 29.326000 # CB MET
231 32 35 0.000000 20.080000 9.521000 29.480000 # CG MET
232 32 81 0.000000 19.646999 11.131000 28.804001 # SD MET
233 32 31 0.000000 19.879999 10.730000 27.082001 # CE MET
234 33 53 0.000000 21.486000 6.449000 27.841000 # N PHE
235 33 18 0.000000 20.716999 5.424000 27.059000 # CA PHE
236 33 1 0.000000 20.826000 4.050000 27.657000 # C PHE
237 33 66 0.000000 19.881001 3.287000 27.551001 # O PHE
238 33 23 0.000000 21.219000 5.296000 25.653000 # CB PHE
239 33 35 0.000000 21.045000 6.584000 24.844000 # CG PHE
240 33 29 0.000000 19.909000 7.342000 24.937000 # CD1 PHE
241 33 30 0.000000 22.069000 6.991000 24.000000 # CD2 PHE
242 33 32 0.000000 19.770000 8.513000 24.193001 # CE1 PHE
243 33 33 0.000000 21.931999 8.179000 23.249001 # CE2 PHE
244 33 49 0.000000 20.788000 8.932000 23.346001 # CZ PHE
245 34 53 0.000000 21.975000 3.743000 28.327999 # N LEU
246 34 18 0.000000 22.098000 2.400000 28.917000 # CA LEU
247 34 1 0.000000 21.443001 2.351000 30.305000 # C LEU
248 34 66 0.000000 20.895000 1.315000 30.669001 # O LEU
249 34 23 0.000000 23.542999 2.052000 29.125000 # CB LEU
250 34 35 0.000000 24.278999 1.824000 27.827999 # CG LEU
251 34 29 0.000000 25.775999 1.499000 28.004999 # CD1 LEU
252 34 30 0.000000 23.563999 0.744000 27.075001 # CD2 LEU
253 35 53 0.000000 21.518999 3.434000 31.094000 # N SER
254 35 18 0.000000 21.077000 3.329000 32.471001 # CA SER
255 35 1 0.000000 19.584000 3.584000 32.583000 # C SER
256 35 66 0.000000 18.910999 3.096000 33.501999 # O SER
257 35 23 0.000000 21.733000 4.414000 33.333000 # CB SER
258 35 77 0.000000 23.065001 4.042000 33.567001 # OG SER
259 36 53 0.000000 19.129999 4.419000 31.641001 # N PHE
260 36 18 0.000000 17.726999 4.889000 31.577999 # CA PHE
261 36 1 0.000000 17.171000 4.716000 30.171000 # C PHE
262 36 66 0.000000 16.993000 5.718000 29.424000 # O PHE
263 36 23 0.000000 17.587000 6.359000 32.034000 # CB PHE
264 36 35 0.000000 18.302999 6.627000 33.368000 # CG PHE
265 36 29 0.000000 19.500999 7.310000 33.382000 # CD1 PHE
266 36 30 0.000000 17.733000 6.152000 34.548000 # CD2 PHE
267 36 32 0.000000 20.166000 7.501000 34.590000 # CE1 PHE
268 36 33 0.000000 18.396999 6.345000 35.769001 # CE2 PHE
269 36 49 0.000000 19.605000 7.005000 35.784000 # CZ PHE
270 37 53 0.000000 16.843000 3.513000 29.855000 # N PRO
271 37 18 0.000000 16.412001 3.173000 28.471001 # CA PRO
272 37 1 0.000000 15.195000 3.925000 27.983999 # C PRO
273 37 66 0.000000 15.015000 4.094000 26.764999 # O PRO
274 37 23 0.000000 16.236000 1.676000 28.410000 # CB PRO
275 37 35 0.000000 16.294001 1.205000 29.840000 # CG PRO
276 37 28 0.000000 16.952000 2.332000 30.657000 # CD PRO
277 38 53 0.000000 14.399000 4.442000 28.905001 # N THR
278 38 18 0.000000 13.219000 5.183000 28.409000 # CA THR
279 38 1 0.000000 13.631000 6.424000 27.620001 # C THR
280 38 66 0.000000 12.868000 6.927000 26.798000 # O THR
281 38 23 0.000000 12.313000 5.575000 29.613001 # CB THR
282 38 78 0.000000 13.011000 6.284000 30.584999 # OG1 THR
283 38 37 0.000000 11.793000 4.252000 30.184999 # CG2 THR
284 39 53 0.000000 14.822000 6.928000 27.882000 # N THR
285 39 18 0.000000 15.255000 8.141000 27.167000 # CA THR
286 39 1 0.000000 15.487000 7.874000 25.663000 # C THR
287 39 66 0.000000 15.500000 8.802000 24.870001 # O THR
288 39 23 0.000000 16.528999 8.677000 27.809000 # CB THR
289 39 78 0.000000 17.639999 7.760000 27.764000 # OG1 THR
290 39 37 0.000000 16.313999 9.072000 29.267000 # CG2 THR
291 40 53 0.000000 15.602000 6.641000 25.302999 # N LYS
292 40 18 0.000000 15.849000 6.309000 23.915001 # CA LYS
293 40 1 0.000000 14.588000 6.586000 23.068001 # C LYS
294 40 66 0.000000 14.661000 6.626000 21.851000 # O LYS
295 40 23 0.000000 16.176001 4.801000 23.768999 # CB LYS
296 40 35 0.000000 17.540001 4.298000 24.226999 # CG LYS
297 40 28 0.000000 17.434000 2.843000 23.860001 # CD LYS
298 40 31 0.000000 17.865000 1.913000 24.881001 # CE LYS
299 40 65 0.000000 17.725000 0.558000 24.357000 # NZ LYS
300 41 53 0.000000 13.437000 6.751000 23.702999 # N THR
301 41 18 0.000000 12.212000 7.046000 22.971001 # CA THR
302 41 1 0.000000 12.302000 8.402000 22.268999 # C THR
303 41 66 0.000000 11.477000 8.717000 21.391001 # O THR
304 41 23 0.000000 10.997000 7.028000 23.910000 # CB THR
305 41 78 0.000000 11.133000 8.047000 24.886000 # OG1 THR
306 41 37 0.000000 10.746000 5.682000 24.565001 # CG2 THR
307 42 53 0.000000 13.249000 9.267000 22.649000 # N TYR
308 42 18 0.000000 13.341000 10.556000 21.936001 # CA TYR
309 42 1 0.000000 14.327000 10.496000 20.736000 # C TYR
310 42 66 0.000000 14.402000 11.472000 19.989000 # O TYR
311 42 23 0.000000 13.819000 11.595000 22.902000 # CB TYR
312 42 35 0.000000 12.721000 11.868000 23.938999 # CG TYR
313 42 29 0.000000 11.684000 12.732000 23.677999 # CD1 TYR
314 42 30 0.000000 12.775000 11.211000 25.162001 # CD2 TYR
315 42 32 0.000000 10.700000 12.945000 24.615999 # CE1 TYR
316 42 33 0.000000 11.779000 11.438000 26.106001 # CE2 TYR
317 42 49 0.000000 10.742000 12.302000 25.830000 # CZ TYR
318 42 79 0.000000 9.773000 12.522000 26.768999 # OH TYR
319 43 53 0.000000 15.069000 9.369000 20.624001 # N PHE
320 43 18 0.000000 16.056999 9.218000 19.552999 # CA PHE
321 43 1 0.000000 15.789000 7.991000 18.691000 # C PHE
322 43 66 0.000000 16.724001 7.265000 18.341999 # O PHE
323 43 23 0.000000 17.424999 9.127000 20.195999 # CB PHE
324 43 35 0.000000 17.844000 10.390000 20.995001 # CG PHE
325 43 29 0.000000 17.490999 10.504000 22.327000 # CD1 PHE
326 43 30 0.000000 18.547001 11.403000 20.410000 # CD2 PHE
327 43 32 0.000000 17.858000 11.623000 23.054001 # CE1 PHE
328 43 33 0.000000 18.930000 12.549000 21.127001 # CE2 PHE
329 43 49 0.000000 18.573999 12.645000 22.474001 # CZ PHE
330 44 53 0.000000 14.571000 7.757000 18.263000 # N PRO
331 44 18 0.000000 14.296000 6.570000 17.420000 # CA PRO
332 44 1 0.000000 14.939000 6.730000 16.000000 # C PRO
333 44 66 0.000000 15.161000 5.794000 15.249000 # O PRO
334 44 23 0.000000 12.805000 6.543000 17.308001 # CB PRO
335 44 35 0.000000 12.435000 8.029000 17.337000 # CG PRO
336 44 28 0.000000 13.379000 8.615000 18.368999 # CD PRO
337 45 53 0.000000 15.314000 7.894000 15.638000 # N HIS
338 45 18 0.000000 15.922000 8.158000 14.318000 # CA HIS
339 45 1 0.000000 17.450001 8.129000 14.320000 # C HIS
340 45 66 0.000000 18.038000 8.452000 13.288000 # O HIS
341 45 23 0.000000 15.495000 9.570000 13.875000 # CB HIS
342 45 35 0.000000 15.809000 10.732000 14.839000 # CG HIS
343 45 58 0.000000 15.413000 10.710000 16.195999 # ND1 HIS
344 45 30 0.000000 16.497999 11.909000 14.601000 # CD2 HIS
345 45 32 0.000000 15.844000 11.897000 16.789000 # CE1 HIS
346 45 62 0.000000 16.524000 12.652000 15.790000 # NE2 HIS
347 46 53 0.000000 18.080999 7.782000 15.494000 # N PHE
348 46 18 0.000000 19.527000 7.728000 15.621000 # CA PHE
349 46 1 0.000000 20.011999 6.292000 15.616000 # C PHE
350 46 66 0.000000 19.354000 5.362000 16.118000 # O PHE
351 46 23 0.000000 19.983000 8.306000 16.971001 # CB PHE
352 46 35 0.000000 20.277000 9.800000 16.937000 # CG PHE
353 46 29 0.000000 21.120001 10.348000 17.875000 # CD1 PHE
354 46 30 0.000000 19.719999 10.615000 15.994000 # CD2 PHE
355 46 32 0.000000 21.396999 11.694000 17.885000 # CE1 PHE
356 46 33 0.000000 19.992001 11.991000 15.990000 # CE2 PHE
357 46 49 0.000000 20.832001 12.544000 16.938999 # CZ PHE
358 47 53 0.000000 21.212999 6.163000 15.060000 # N ASP
359 47 18 0.000000 21.941999 4.914000 15.347000 # CA ASP
360 47 1 0.000000 22.533001 5.105000 16.756001 # C ASP
361 47 66 0.000000 23.423000 5.937000 16.930000 # O ASP
362 47 23 0.000000 23.087999 4.830000 14.344000 # CB ASP
363 47 35 0.000000 23.921000 3.581000 14.559000 # CG ASP
364 47 73 0.000000 23.528999 2.634000 15.247000 # OD1 ASP
365 47 74 0.000000 24.995001 3.574000 13.964000 # OD2 ASP
366 48 53 0.000000 22.007000 4.385000 17.674000 # N LEU
367 48 18 0.000000 22.495001 4.518000 19.011999 # CA LEU
368 48 1 0.000000 23.555000 3.482000 19.350000 # C LEU
369 48 66 0.000000 23.746000 3.203000 20.542000 # O LEU
370 48 23 0.000000 21.356001 4.442000 20.054001 # CB LEU
371 48 35 0.000000 20.326000 5.563000 19.919001 # CG LEU
372 48 29 0.000000 19.153000 5.323000 20.893000 # CD1 LEU
373 48 30 0.000000 20.875999 6.942000 20.032000 # CD2 LEU
374 49 53 0.000000 24.257000 2.957000 18.351999 # N SER
375 49 18 0.000000 25.304001 2.020000 18.753000 # CA SER
376 49 1 0.000000 26.532000 2.802000 19.216000 # C SER
377 49 66 0.000000 26.702999 4.006000 18.940001 # O SER
378 49 23 0.000000 25.559000 0.965000 17.684000 # CB SER
379 49 77 0.000000 25.833000 1.600000 16.479000 # OG SER
380 50 53 0.000000 27.358000 2.102000 20.002001 # N HIS
381 50 18 0.000000 28.482000 2.780000 20.621000 # CA HIS
382 50 1 0.000000 29.378000 3.415000 19.573000 # C HIS
383 50 66 0.000000 29.778999 2.727000 18.618999 # O HIS
384 50 23 0.000000 29.306999 1.705000 21.356001 # CB HIS
385 50 35 0.000000 30.590000 2.288000 21.955999 # CG HIS
386 50 58 0.000000 30.575001 3.334000 22.868000 # ND1 HIS
387 50 30 0.000000 31.896999 1.928000 21.736000 # CD2 HIS
388 50 32 0.000000 31.868999 3.649000 23.215000 # CE1 HIS
389 50 62 0.000000 32.688000 2.777000 22.511999 # NE2 HIS
390 51 53 0.000000 29.641001 4.663000 19.728001 # N GLY
391 51 18 0.000000 30.605000 5.370000 18.896000 # CA GLY
392 51 1 0.000000 29.995001 5.912000 17.601999 # C GLY
393 51 66 0.000000 30.719999 6.416000 16.736000 # O GLY
394 52 53 0.000000 28.688000 5.802000 17.481001 # N SER
395 52 18 0.000000 28.084999 6.318000 16.235001 # CA SER
396 52 1 0.000000 28.332001 7.803000 16.059999 # C SER
397 52 66 0.000000 28.379999 8.611000 16.997000 # O SER
398 52 23 0.000000 26.597000 6.055000 16.200001 # CB SER
399 52 77 0.000000 25.898001 7.082000 16.834999 # OG SER
400 53 53 0.000000 28.490999 8.172000 14.805000 # N ALA
401 53 18 0.000000 28.690001 9.585000 14.477000 # CA ALA
402 53 1 0.000000 27.527000 10.481000 14.963000 # C ALA
403 53 66 0.000000 27.771999 11.626000 15.344000 # O ALA
404 53 23 0.000000 28.757000 9.700000 12.937000 # CB ALA
405 54 53 0.000000 26.290001 9.919000 14.966000 # N GLN
406 54 18 0.000000 25.146000 10.753000 15.342000 # CA GLN
407 54 1 0.000000 25.259001 11.104000 16.827000 # C GLN
408 54 66 0.000000 24.922001 12.250000 17.160000 # O GLN
409 54 23 0.000000 23.843000 9.954000 15.165000 # CB GLN
410 54 35 0.000000 23.292000 10.128000 13.749000 # CG GLN
411 54 28 0.000000 22.368000 8.997000 13.303000 # CD GLN
412 54 75 0.000000 22.653000 7.819000 13.529000 # OE1 GLN
413 54 62 0.000000 21.379000 9.359000 12.492000 # NE2 GLN
414 55 53 0.000000 25.642000 10.090000 17.632000 # N VAL
415 55 18 0.000000 25.795000 10.344000 19.096001 # CA VAL
416 55 1 0.000000 26.976999 11.264000 19.408001 # C VAL
417 55 66 0.000000 26.875000 12.210000 20.191999 # O VAL
418 55 23 0.000000 25.900000 8.996000 19.825001 # CB VAL
419 55 36 0.000000 26.306000 9.164000 21.291000 # CG1 VAL
420 55 37 0.000000 24.577999 8.296000 19.705999 # CG2 VAL
421 56 53 0.000000 28.106001 11.000000 18.767000 # N LYS
422 56 18 0.000000 29.240000 11.896000 18.938000 # CA LYS
423 56 1 0.000000 28.896999 13.314000 18.545000 # C LYS
424 56 66 0.000000 29.275000 14.261000 19.250000 # O LYS
425 56 23 0.000000 30.471001 11.397000 18.195999 # CB LYS
426 56 35 0.000000 31.004000 10.077000 18.737000 # CG LYS
427 56 28 0.000000 32.355000 9.815000 18.003000 # CD LYS
428 56 31 0.000000 33.169998 8.576000 18.445999 # CE LYS
429 56 65 0.000000 34.411999 8.509000 17.627001 # NZ LYS
430 57 53 0.000000 28.209000 13.435000 17.403999 # N GLY
431 57 18 0.000000 27.805000 14.758000 16.917999 # CA GLY
432 57 1 0.000000 26.872000 15.459000 17.915001 # C GLY
433 57 66 0.000000 27.089001 16.634001 18.259001 # O GLY
434 58 53 0.000000 25.893999 14.697000 18.396999 # N HIS
435 58 18 0.000000 24.959000 15.318000 19.351000 # CA HIS
436 58 1 0.000000 25.646000 15.668000 20.709000 # C HIS
437 58 66 0.000000 25.378000 16.735001 21.283001 # O HIS
438 58 23 0.000000 23.785999 14.370000 19.493999 # CB HIS
439 58 35 0.000000 22.659000 15.033000 20.304001 # CG HIS
440 58 58 0.000000 22.105000 16.252001 19.971001 # ND1 HIS
441 58 30 0.000000 22.047001 14.573000 21.420000 # CD2 HIS
442 58 32 0.000000 21.153000 16.525000 20.934999 # CE1 HIS
443 58 62 0.000000 21.120001 15.495000 21.809999 # NE2 HIS
444 59 53 0.000000 26.530001 14.808000 21.131001 # N GLY
445 59 18 0.000000 27.368999 15.049000 22.368000 # CA GLY
446 59 1 0.000000 28.094999 16.385000 22.312000 # C GLY
447 59 66 0.000000 28.110001 17.190001 23.268999 # O GLY
448 60 53 0.000000 28.672001 16.663000 21.134001 # N LYS
449 60 18 0.000000 29.403999 17.944000 20.914000 # CA LYS
450 60 1 0.000000 28.452999 19.112000 20.962999 # C LYS
451 60 66 0.000000 28.802000 20.155001 21.504999 # O LYS
452 60 23 0.000000 30.070999 17.934000 19.530001 # CB LYS
453 60 35 0.000000 31.041000 19.066999 19.261999 # CG LYS
454 60 28 0.000000 31.625999 18.823999 17.851999 # CD LYS
455 60 31 0.000000 32.792999 19.737000 17.398001 # CE LYS
456 60 65 0.000000 33.407001 19.155001 16.124001 # NZ LYS
457 61 53 0.000000 27.268000 18.913000 20.407000 # N LYS
458 61 18 0.000000 26.287001 20.011000 20.434999 # CA LYS
459 61 1 0.000000 25.823000 20.285000 21.851000 # C LYS
460 61 66 0.000000 25.681000 21.466999 22.184000 # O LYS
461 61 23 0.000000 25.030001 19.712000 19.632000 # CB LYS
462 61 35 0.000000 25.231001 19.885000 18.125000 # CG LYS
463 61 28 0.000000 23.976000 19.362000 17.452999 # CD LYS
464 61 31 0.000000 24.023001 19.465000 15.943000 # CE LYS
465 61 65 0.000000 22.941000 18.622999 15.396000 # NZ LYS
466 62 53 0.000000 25.656000 19.202999 22.591000 # N VAL
467 62 18 0.000000 25.221001 19.385000 24.007000 # CA VAL
468 62 1 0.000000 26.285999 20.153999 24.830000 # C VAL
469 62 66 0.000000 26.020000 21.160000 25.506001 # O VAL
470 62 23 0.000000 24.868000 18.014999 24.570000 # CB VAL
471 62 36 0.000000 24.656000 18.054001 26.090000 # CG1 VAL
472 62 37 0.000000 23.538000 17.634001 23.934999 # CG2 VAL
473 63 53 0.000000 27.481001 19.674000 24.636000 # N ALA
474 63 18 0.000000 28.666000 20.250999 25.288000 # CA ALA
475 63 1 0.000000 28.893999 21.701000 24.892000 # C ALA
476 63 66 0.000000 29.181000 22.531000 25.756001 # O ALA
477 63 23 0.000000 29.846001 19.330000 24.922001 # CB ALA