LAMMPS data file. CGCMM style. atom_style full generated by VMD/TopoTools v1.7 on Thu Mar 20 16:43:32 MSK 2025
 3281 atoms
 3521 bonds
 0 angles
 0 dihedrals
 0 impropers
 6 atom types
 1 bond types
 0 angle types
 0 dihedral types
 0 improper types
 -100 100  xlo xhi
 -100 100  ylo yhi
 -100 100  zlo zhi

# Pair Coeffs
#
# 1  C
# 2  Fe
# 3  H
# 4  N
# 5  O
# 6  S

# Bond Coeffs
#
# 1  

 Masses

 1 12.010700 # C
 2 55.845001 # Fe
 3 1.007940 # H
 4 14.006700 # N
 5 15.999400 # O
 6 32.064999 # S

 Atoms # full

1 1 4 0.000000 27.186001 -17.999001 14.999000 # N 
2 1 1 0.000000 25.801001 -18.500999 14.772000 # C 
3 1 1 0.000000 24.757999 -17.410000 14.913000 # C 
4 1 5 0.000000 25.068001 -16.223000 14.832000 # O 
5 1 4 0.000000 23.513000 -17.819000 15.123000 # N 
6 1 1 0.000000 22.422001 -16.872000 15.325000 # C 
7 1 1 0.000000 22.143999 -16.719000 16.806999 # C 
8 1 5 0.000000 22.281000 -17.672001 17.577999 # O 
9 1 1 0.000000 21.153999 -17.368999 14.638000 # C 
10 1 1 0.000000 21.061001 -17.164000 13.128000 # C 
11 1 1 0.000000 22.030001 -18.075001 12.385000 # C 
12 1 1 0.000000 19.634001 -17.423000 12.673000 # C 
13 1 4 0.000000 21.754999 -15.515000 17.205000 # N 
14 1 1 0.000000 21.337000 -15.274000 18.575001 # C 
15 1 1 0.000000 19.959000 -15.891000 18.791000 # C 
16 1 5 0.000000 19.257000 -16.233999 17.837000 # O 
17 1 1 0.000000 21.259001 -13.772000 18.833000 # C 
18 1 5 0.000000 20.202999 -13.206000 18.073999 # O 
19 1 4 0.000000 19.561001 -16.021999 20.049999 # N 
20 1 1 0.000000 18.225000 -16.507999 20.347000 # C 
21 1 1 0.000000 17.172001 -15.596000 19.708000 # C 
22 1 5 0.000000 16.181999 -16.075001 19.157000 # O 
23 1 1 0.000000 18.021000 -16.641001 21.858999 # C 
24 1 1 0.000000 18.926001 -17.702999 22.482000 # C 
25 1 5 0.000000 19.080000 -18.789000 21.881001 # O 
26 1 5 0.000000 19.476999 -17.459000 23.575001 # O 
27 1 4 0.000000 17.400999 -14.286000 19.750999 # N 
28 1 1 0.000000 16.476999 -13.338000 19.132999 # C 
29 1 1 0.000000 16.358999 -13.559000 17.634001 # C 
30 1 5 0.000000 15.270000 -13.509000 17.061001 # O 
31 1 4 0.000000 17.490999 -13.804000 16.990000 # N 
32 1 1 0.000000 17.489000 -14.064000 15.564000 # C 
33 1 1 0.000000 16.745001 -15.356000 15.220000 # C 
34 1 5 0.000000 15.949000 -15.384000 14.285000 # O 
35 1 1 0.000000 18.915001 -14.048000 15.016000 # C 
36 1 1 0.000000 19.489000 -12.640000 14.967000 # C 
37 1 1 0.000000 20.981001 -12.593000 14.712000 # C 
38 1 5 0.000000 21.684999 -13.585000 15.008000 # O 
39 1 5 0.000000 21.457001 -11.545000 14.229000 # O 
40 1 4 0.000000 16.982000 -16.423000 15.978000 # N 
41 1 1 0.000000 16.235001 -17.653999 15.745000 # C 
42 1 1 0.000000 14.736000 -17.430000 15.896000 # C 
43 1 5 0.000000 13.947000 -17.969999 15.132000 # O 
44 1 1 0.000000 16.694000 -18.785999 16.667000 # C 
45 1 1 0.000000 17.962000 -19.450001 16.205000 # C 
46 1 1 0.000000 19.136999 -19.533001 16.893999 # C 
47 1 1 0.000000 18.180000 -20.122000 14.954000 # C 
48 1 4 0.000000 20.075001 -20.212000 16.152000 # N 
49 1 1 0.000000 19.513000 -20.586000 14.958000 # C 
50 1 1 0.000000 17.377001 -20.382999 13.836000 # C 
51 1 1 0.000000 20.066000 -21.278000 13.888000 # C 
52 1 1 0.000000 17.931999 -21.080999 12.767000 # C 
53 1 1 0.000000 19.264000 -21.520000 12.805000 # C 
54 1 4 0.000000 14.338000 -16.631001 16.878000 # N 
55 1 1 0.000000 12.920000 -16.360001 17.063000 # C 
56 1 1 0.000000 12.342000 -15.669000 15.831000 # C 
57 1 5 0.000000 11.240000 -15.995000 15.385000 # O 
58 1 1 0.000000 12.692000 -15.519000 18.316999 # C 
59 1 1 0.000000 11.233000 -15.401000 18.698999 # C 
60 1 1 0.000000 11.034000 -14.623000 19.976999 # C 
61 1 5 0.000000 11.721000 -13.634000 20.232000 # O 
62 1 4 0.000000 10.083000 -15.061000 20.790001 # N 
63 1 4 0.000000 13.095000 -14.734000 15.262000 # N 
64 1 1 0.000000 12.659000 -14.079000 14.030000 # C 
65 1 1 0.000000 12.544000 -15.083000 12.878000 # C 
66 1 5 0.000000 11.573000 -15.073000 12.122000 # O 
67 1 1 0.000000 13.613000 -12.942000 13.652000 # C 
68 1 1 0.000000 13.518000 -11.722000 14.552000 # C 
69 1 1 0.000000 12.200000 -10.989000 14.392000 # C 
70 1 5 0.000000 11.507000 -10.715000 15.373000 # O 
71 1 4 0.000000 11.840000 -10.677000 13.150000 # N 
72 1 4 0.000000 13.543000 -15.946000 12.740000 # N 
73 1 1 0.000000 13.516000 -16.952999 11.684000 # C 
74 1 1 0.000000 12.251000 -17.806999 11.779000 # C 
75 1 5 0.000000 11.565000 -18.044001 10.782000 # O 
76 1 1 0.000000 14.742000 -17.879999 11.767000 # C 
77 1 1 0.000000 14.585000 -19.066000 10.817000 # C 
78 1 1 0.000000 16.014999 -17.106001 11.458000 # C 
79 1 4 0.000000 11.950000 -18.287001 12.980000 # N 
80 1 1 0.000000 10.828000 -19.198999 13.136000 # C 
81 1 1 0.000000 9.484000 -18.483999 13.051000 # C 
82 1 5 0.000000 8.479000 -19.087999 12.677000 # O 
83 1 1 0.000000 10.980000 -20.040001 14.405000 # C 
84 1 1 0.000000 12.217000 -20.950001 14.353000 # C 
85 1 1 0.000000 12.291000 -21.834000 15.590000 # C 
86 1 1 0.000000 12.203000 -21.813000 13.088000 # C 
87 1 4 0.000000 9.474000 -17.191000 13.358000 # N 
88 1 1 0.000000 8.284000 -16.384001 13.144000 # C 
89 1 1 0.000000 8.013000 -16.216999 11.650000 # C 
90 1 5 0.000000 6.894000 -16.421000 11.184000 # O 
91 1 1 0.000000 8.436000 -15.022000 13.810000 # C 
92 1 1 0.000000 7.139000 -14.250000 13.826000 # C 
93 1 5 0.000000 6.206000 -14.601000 14.548000 # O 
94 1 4 0.000000 7.067000 -13.201000 13.022000 # N 
95 1 4 0.000000 9.046000 -15.865000 10.892000 # N 
96 1 1 0.000000 8.915000 -15.792000 9.437000 # C 
97 1 1 0.000000 8.443000 -17.132999 8.879000 # C 
98 1 5 0.000000 7.596000 -17.191999 7.985000 # O 
99 1 1 0.000000 10.259000 -15.417000 8.779000 # C 
100 1 1 0.000000 10.196000 -15.596000 7.267000 # C 
101 1 1 0.000000 10.652000 -13.985000 9.147000 # C 
102 1 4 0.000000 8.985000 -18.219000 9.414000 # N 
103 1 1 0.000000 8.660000 -19.535000 8.887000 # C 
104 1 1 0.000000 7.176000 -19.861000 9.034000 # C 
105 1 5 0.000000 6.618000 -20.632000 8.249000 # O 
106 1 1 0.000000 9.524000 -20.622999 9.528000 # C 
107 1 1 0.000000 9.469000 -21.896000 8.757000 # C 
108 1 1 0.000000 8.837000 -23.048000 9.120000 # C 
109 1 1 0.000000 10.038000 -22.136999 7.467000 # C 
110 1 4 0.000000 8.985000 -23.999001 8.139000 # N 
111 1 1 0.000000 9.716000 -23.465000 7.110000 # C 
112 1 1 0.000000 10.788000 -21.362000 6.577000 # C 
113 1 1 0.000000 10.126000 -24.035000 5.904000 # C 
114 1 1 0.000000 11.193000 -21.929001 5.376000 # C 
115 1 1 0.000000 10.856000 -23.252001 5.051000 # C 
116 1 4 0.000000 6.528000 -19.273001 10.036000 # N 
117 1 1 0.000000 5.082000 -19.431999 10.187000 # C 
118 1 1 0.000000 4.323000 -19.009001 8.940000 # C 
119 1 5 0.000000 3.270000 -19.570999 8.626000 # O 
120 1 4 0.000000 4.847000 -18.014999 8.225000 # N 
121 1 1 0.000000 4.223000 -17.570000 6.979000 # C 
122 1 1 0.000000 4.267000 -18.691000 5.954000 # C 
123 1 5 0.000000 3.286000 -18.968000 5.257000 # O 
124 1 1 0.000000 4.967000 -16.358000 6.414000 # C 
125 1 1 0.000000 4.840000 -15.095000 7.234000 # C 
126 1 1 0.000000 5.623000 -13.958000 6.584000 # C 
127 1 1 0.000000 5.103000 -12.590000 7.008000 # C 
128 1 4 0.000000 5.066000 -12.453000 8.487000 # N 
129 1 4 0.000000 5.427000 -19.327000 5.848000 # N 
130 1 1 0.000000 5.594000 -20.436001 4.922000 # C 
131 1 1 0.000000 4.664000 -21.598000 5.283000 # C 
132 1 5 0.000000 4.018000 -22.184000 4.411000 # O 
133 1 1 0.000000 7.065000 -20.910000 4.888000 # C 
134 1 1 0.000000 7.214000 -22.110001 3.963000 # C 
135 1 1 0.000000 7.970000 -19.756001 4.451000 # C 
136 1 4 0.000000 4.579000 -21.916000 6.573000 # N 
137 1 1 0.000000 3.778000 -23.048000 7.032000 # C 
138 1 1 0.000000 2.281000 -22.915001 6.771000 # C 
139 1 5 0.000000 1.567000 -23.917000 6.725000 # O 
140 1 1 0.000000 4.038000 -23.330000 8.506000 # C 
141 1 1 0.000000 5.450000 -23.806000 8.759000 # C 
142 1 1 0.000000 5.688000 -24.235001 10.189000 # C 
143 1 5 0.000000 4.924000 -23.806999 11.080000 # O 
144 1 5 0.000000 6.640000 -25.004000 10.420000 # O 
145 1 4 0.000000 1.799000 -21.688000 6.605000 # N 
146 1 1 0.000000 0.383000 -21.473000 6.299000 # C 
147 1 1 0.000000 0.049000 -21.920000 4.877000 # C 
148 1 5 0.000000 -1.098000 -22.219000 4.568000 # O 
149 1 1 0.000000 -0.008000 -20.014999 6.517000 # C 
150 1 4 0.000000 1.055000 -21.958000 4.008000 # N 
151 1 1 0.000000 0.850000 -22.391001 2.628000 # C 
152 1 1 0.000000 2.157000 -22.969000 2.097000 # C 
153 1 5 0.000000 2.823000 -22.358000 1.267000 # O 
154 1 1 0.000000 0.414000 -21.208000 1.761000 # C 
155 1 1 0.000000 0.173000 -21.600000 0.313000 # C 
156 1 5 0.000000 0.047000 -22.811001 0.035000 # O 
157 1 5 0.000000 0.121000 -20.697001 -0.547000 # O 
158 1 4 0.000000 2.526000 -24.148001 2.586000 # N 
159 1 1 0.000000 3.810000 -24.757000 2.242000 # C 
160 1 1 0.000000 3.813000 -24.731001 2.243000 # C 
161 1 1 0.000000 3.920000 -25.052000 0.756000 # C 
162 1 5 0.000000 4.946000 -24.782000 0.129000 # O 
163 1 1 0.000000 4.047000 -26.066000 3.020000 # C 
164 1 1 0.000000 4.111000 -25.981001 3.091000 # C 
165 1 1 0.000000 4.397000 -25.764999 4.479000 # C 
166 1 1 0.000000 5.578000 -26.382999 2.957000 # C 
167 1 1 0.000000 5.151000 -26.885000 2.358000 # C 
168 1 1 0.000000 3.165000 -27.115000 2.735000 # C 
169 1 1 0.000000 5.769000 -25.167999 4.661000 # C 
170 1 1 0.000000 6.523000 -25.431999 3.636000 # C 
171 1 4 0.000000 2.860000 -25.622000 0.191000 # N 
172 1 1 0.000000 2.857000 -25.966000 -1.226000 # C 
173 1 1 0.000000 2.982000 -24.732000 -2.124000 # C 
174 1 5 0.000000 3.703000 -24.756001 -3.117000 # O 
175 1 1 0.000000 1.620000 -26.770000 -1.575000 # C 
176 1 4 0.000000 2.281000 -23.658001 -1.775000 # N 
177 1 1 0.000000 2.321000 -22.434000 -2.568000 # C 
178 1 1 0.000000 3.680000 -21.767000 -2.495000 # C 
179 1 5 0.000000 4.245000 -21.349001 -3.512000 # O 
180 1 4 0.000000 4.226000 -21.674000 -1.289000 # N 
181 1 1 0.000000 5.578000 -21.158001 -1.143000 # C 
182 1 1 0.000000 6.601000 -22.035999 -1.867000 # C 
183 1 5 0.000000 7.496000 -21.527000 -2.541000 # O 
184 1 1 0.000000 5.954000 -20.993999 0.328000 # C 
185 1 1 0.000000 5.315000 -19.809999 0.986000 # C 
186 1 4 0.000000 4.021000 -19.830000 1.461000 # N 
187 1 1 0.000000 5.802000 -18.580000 1.276000 # C 
188 1 1 0.000000 3.734000 -18.659000 1.999000 # C 
189 1 4 0.000000 4.797000 -17.882000 1.902000 # N 
190 1 4 0.000000 6.463000 -23.351000 -1.739000 # N 
191 1 1 0.000000 7.403000 -24.275999 -2.375000 # C 
192 1 1 0.000000 7.375000 -24.170000 -3.884000 # C 
193 1 5 0.000000 8.415000 -24.129999 -4.543000 # O 
194 1 4 0.000000 6.170000 -24.125999 -4.436000 # N 
195 1 1 0.000000 6.002000 -23.961000 -5.868000 # C 
196 1 1 0.000000 6.678000 -22.680000 -6.346000 # C 
197 1 5 0.000000 7.434000 -22.693001 -7.321000 # O 
198 1 1 0.000000 4.513000 -23.927000 -6.215000 # C 
199 1 1 0.000000 4.213000 -23.711000 -7.685000 # C 
200 1 1 0.000000 2.767000 -23.322001 -7.920000 # C 
201 1 5 0.000000 2.306000 -22.285000 -7.438000 # O 
202 1 4 0.000000 2.040000 -24.153000 -8.658000 # N 
203 1 4 0.000000 6.414000 -21.570999 -5.661000 # N 
204 1 1 0.000000 6.956000 -20.291000 -6.107000 # C 
205 1 1 0.000000 8.473000 -20.254000 -5.999000 # C 
206 1 5 0.000000 9.152000 -19.674999 -6.850000 # O 
207 1 1 0.000000 6.316000 -19.117001 -5.362000 # C 
208 1 1 0.000000 4.864000 -18.870001 -5.751000 # C 
209 1 1 0.000000 4.347000 -17.520000 -5.281000 # C 
210 1 5 0.000000 5.145000 -16.558001 -5.222000 # O 
211 1 5 0.000000 3.139000 -17.423000 -4.978000 # O 
212 1 4 0.000000 9.015000 -20.892000 -4.966000 # N 
213 1 1 0.000000 10.460000 -20.941000 -4.815000 # C 
214 1 1 0.000000 11.086000 -21.698000 -5.983000 # C 
215 1 5 0.000000 12.055000 -21.236000 -6.584000 # O 
216 1 1 0.000000 10.876000 -21.570999 -3.470000 # C 
217 1 1 0.000000 12.351000 -21.955999 -3.477000 # C 
218 1 1 0.000000 10.585000 -20.603001 -2.321000 # C 
219 1 4 0.000000 10.531000 -22.857000 -6.322000 # N 
220 1 1 0.000000 11.103000 -23.642000 -7.415000 # C 
221 1 1 0.000000 10.927000 -22.950001 -8.766000 # C 
222 1 5 0.000000 11.816000 -22.986000 -9.609000 # O 
223 1 1 0.000000 10.521000 -25.049999 -7.453000 # C 
224 1 1 0.000000 10.926000 -25.938000 -6.275000 # C 
225 1 1 0.000000 10.181000 -27.259001 -6.332000 # C 
226 1 1 0.000000 12.424000 -26.183001 -6.244000 # C 
227 1 4 0.000000 9.787000 -22.305000 -8.981000 # N 
228 1 1 0.000000 9.576000 -21.604000 -10.240000 # C 
229 1 1 0.000000 10.541000 -20.430000 -10.373000 # C 
230 1 5 0.000000 11.099000 -20.187000 -11.449000 # O 
231 1 1 0.000000 8.113000 -21.158001 -10.411000 # C 
232 1 1 0.000000 7.236000 -22.389999 -10.633000 # C 
233 1 1 0.000000 7.987000 -20.170000 -11.572000 # C 
234 1 1 0.000000 5.748000 -22.101000 -10.705000 # C 
235 1 4 0.000000 10.768000 -19.719999 -9.270000 # N 
236 1 1 0.000000 11.742000 -18.629000 -9.267000 # C 
237 1 1 0.000000 13.125000 -19.181000 -9.626000 # C 
238 1 5 0.000000 13.841000 -18.625000 -10.458000 # O 
239 1 1 0.000000 11.751000 -17.931000 -7.903000 # C 
240 1 1 0.000000 12.796000 -16.839001 -7.733000 # C 
241 1 1 0.000000 12.502000 -15.630000 -8.599000 # C 
242 1 4 0.000000 13.481000 -14.567000 -8.383000 # N 
243 1 1 0.000000 13.334000 -13.319000 -8.815000 # C 
244 1 4 0.000000 12.243000 -12.972000 -9.482000 # N 
245 1 4 0.000000 14.278000 -12.416000 -8.581000 # N 
246 1 4 0.000000 13.488000 -20.298000 -9.010000 # N 
247 1 1 0.000000 14.765000 -20.948000 -9.286000 # C 
248 1 1 0.000000 14.908000 -21.351000 -10.762000 # C 
249 1 5 0.000000 15.916000 -21.046000 -11.419000 # O 
250 1 1 0.000000 14.879000 -22.194000 -8.410000 # C 
251 1 1 0.000000 16.146000 -23.031000 -8.540000 # C 
252 1 1 0.000000 17.351999 -22.263000 -7.997000 # C 
253 1 1 0.000000 15.975000 -24.354000 -7.805000 # C 
254 1 4 0.000000 13.903000 -22.049000 -11.281000 # N 
255 1 1 0.000000 13.967000 -22.601999 -12.632000 # C 
256 1 1 0.000000 13.937000 -21.520000 -13.707000 # C 
257 1 5 0.000000 14.613000 -21.632000 -14.725000 # O 
258 1 1 0.000000 12.794000 -23.552999 -12.883000 # C 
259 1 1 0.000000 12.823000 -24.809999 -12.059000 # C 
260 1 1 0.000000 14.010000 -25.319000 -11.549000 # C 
261 1 1 0.000000 11.645000 -25.510000 -11.826000 # C 
262 1 1 0.000000 14.012000 -26.497999 -10.809000 # C 
263 1 1 0.000000 11.644000 -26.677999 -11.087000 # C 
264 1 1 0.000000 12.828000 -27.174000 -10.576000 # C 
265 1 4 0.000000 13.134000 -20.485001 -13.492000 # N 
266 1 1 0.000000 13.021000 -19.415001 -14.479000 # C 
267 1 1 0.000000 14.232000 -18.487000 -14.458000 # C 
268 1 5 0.000000 14.694000 -18.028999 -15.501000 # O 
269 1 1 0.000000 11.705000 -18.611000 -14.323000 # C 
270 1 5 0.000000 11.655000 -17.997999 -13.029000 # O 
271 1 1 0.000000 10.500000 -19.524000 -14.493000 # C 
272 1 4 0.000000 14.766000 -18.232000 -13.268000 # N 
273 1 1 0.000000 15.942000 -17.386000 -13.138000 # C 
274 1 1 0.000000 17.215000 -18.094000 -13.560000 # C 
275 1 5 0.000000 18.159000 -17.459000 -14.026000 # O 
276 1 4 0.000000 17.226999 -19.419001 -13.414000 # N 
277 1 1 0.000000 18.430000 -20.221001 -13.649000 # C 
278 1 1 0.000000 18.065001 -21.533001 -14.345000 # C 
279 1 5 0.000000 18.028000 -22.583000 -13.709000 # O 
280 1 1 0.000000 19.142000 -20.497999 -12.313000 # C 
281 1 1 0.000000 19.327999 -19.273001 -11.475000 # C 
282 1 4 0.000000 20.389000 -18.410000 -11.647000 # N 
283 1 1 0.000000 18.565001 -18.739000 -10.490000 # C 
284 1 1 0.000000 20.285999 -17.412001 -10.787000 # C 
285 1 4 0.000000 19.188000 -17.587999 -10.073000 # N 
286 1 4 0.000000 17.781000 -21.475000 -15.657000 # N 
287 1 1 0.000000 17.294001 -22.657000 -16.368999 # C 
288 1 1 0.000000 18.179001 -23.882999 -16.254000 # C 
289 1 5 0.000000 17.680000 -25.000000 -16.396999 # O 
290 1 1 0.000000 17.197001 -22.177999 -17.819000 # C 
291 1 1 0.000000 16.972000 -20.702999 -17.691999 # C 
292 1 1 0.000000 17.844999 -20.296000 -16.540001 # C 
293 1 4 0.000000 19.475000 -23.695000 -16.014000 # N 
294 1 1 0.000000 20.358999 -24.844999 -15.854000 # C 
295 1 1 0.000000 19.924999 -25.726999 -14.684000 # C 
296 1 5 0.000000 20.173000 -26.931000 -14.682000 # O 
297 1 1 0.000000 21.825001 -24.419001 -15.713000 # C 
298 1 1 0.000000 22.177999 -23.715000 -14.416000 # C 
299 1 1 0.000000 21.962000 -22.219000 -14.465000 # C 
300 1 5 0.000000 21.047001 -21.754999 -15.183000 # O 
301 1 5 0.000000 22.704000 -21.500999 -13.767000 # O 
302 1 4 0.000000 19.247999 -25.138000 -13.702000 # N 
303 1 1 0.000000 18.839001 -25.899000 -12.530000 # C 
304 1 1 0.000000 17.768000 -26.926001 -12.869000 # C 
305 1 5 0.000000 17.716000 -27.997000 -12.263000 # O 
306 1 1 0.000000 18.361000 -24.993000 -11.373000 # C 
307 1 5 0.000000 17.211000 -24.236000 -11.770000 # O 
308 1 1 0.000000 19.469000 -24.052000 -10.938000 # C 
309 1 4 0.000000 16.909000 -26.590000 -13.832000 # N 
310 1 1 0.000000 15.858000 -27.499001 -14.264000 # C 
311 1 1 0.000000 16.461000 -28.805000 -14.772000 # C 
312 1 5 0.000000 15.871000 -29.875000 -14.624000 # O 
313 1 1 0.000000 15.020000 -26.848000 -15.363000 # C 
314 1 1 0.000000 13.727000 -27.566999 -15.740000 # C 
315 1 1 0.000000 12.716000 -27.441000 -14.609000 # C 
316 1 1 0.000000 13.167000 -26.985001 -17.021999 # C 
317 1 4 0.000000 17.649000 -28.716999 -15.363000 # N 
318 1 1 0.000000 18.277000 -29.879999 -15.984000 # C 
319 1 1 0.000000 18.735001 -30.920000 -14.974000 # C 
320 1 5 0.000000 19.002001 -32.067001 -15.335000 # O 
321 1 1 0.000000 19.434999 -29.459000 -16.884001 # C 
322 1 1 0.000000 19.007999 -28.556999 -18.025000 # C 
323 1 1 0.000000 17.892000 -29.159000 -18.867001 # C 
324 1 5 0.000000 18.076000 -30.277000 -19.386999 # O 
325 1 5 0.000000 16.830000 -28.511000 -19.009001 # O 
326 1 4 0.000000 18.816000 -30.521000 -13.708000 # N 
327 1 1 0.000000 19.158001 -31.461000 -12.649000 # C 
328 1 1 0.000000 17.969999 -32.342999 -12.295000 # C 
329 1 5 0.000000 18.121000 -33.339001 -11.590000 # O 
330 1 1 0.000000 19.667000 -30.737000 -11.401000 # C 
331 1 1 0.000000 21.018999 -30.075001 -11.581000 # C 
332 1 1 0.000000 22.122000 -31.105000 -11.789000 # C 
333 1 1 0.000000 23.455999 -30.410999 -11.998000 # C 
334 1 4 0.000000 24.591999 -31.374001 -12.031000 # N 
335 1 4 0.000000 16.795000 -31.969999 -12.802000 # N 
336 1 1 0.000000 15.556000 -32.688000 -12.517000 # C 
337 1 1 0.000000 15.066000 -33.369999 -13.784000 # C 
338 1 5 0.000000 14.355000 -32.765999 -14.592000 # O 
339 1 1 0.000000 14.451000 -31.723000 -12.083000 # C 
340 1 1 0.000000 14.619000 -31.160000 -10.704000 # C 
341 1 1 0.000000 15.283000 -29.962999 -10.507000 # C 
342 1 1 0.000000 14.050000 -31.792000 -9.609000 # C 
343 1 1 0.000000 15.416000 -29.429001 -9.236000 # C 
344 1 1 0.000000 14.177000 -31.260000 -8.336000 # C 
345 1 1 0.000000 14.852000 -30.073999 -8.155000 # C 
346 1 4 0.000000 15.422000 -34.632000 -13.959000 # N 
347 1 1 0.000000 14.919000 -35.375999 -15.101000 # C 
348 1 1 0.000000 13.394000 -35.296001 -15.151000 # C 
349 1 5 0.000000 12.801000 -35.291000 -16.229000 # O 
350 1 1 0.000000 15.384000 -36.831001 -15.043000 # C 
351 1 1 0.000000 16.865999 -36.974998 -15.314000 # C 
352 1 5 0.000000 17.434999 -36.083000 -15.979000 # O 
353 1 5 0.000000 17.461000 -37.977001 -14.865000 # O 
354 1 4 0.000000 12.760000 -35.209999 -13.985000 # N 
355 1 1 0.000000 11.304000 -35.206001 -13.928000 # C 
356 1 1 0.000000 10.649000 -33.835999 -14.113000 # C 
357 1 5 0.000000 9.421000 -33.723000 -14.085000 # O 
358 1 1 0.000000 10.807000 -35.887001 -12.655000 # C 
359 1 1 0.000000 10.909000 -35.049999 -11.393000 # C 
360 1 1 0.000000 10.300000 -35.827000 -10.243000 # C 
361 1 1 0.000000 10.168000 -34.997002 -8.985000 # C 
362 1 4 0.000000 9.297000 -35.702999 -8.004000 # N 
363 1 4 0.000000 11.460000 -32.799999 -14.302000 # N 
364 1 1 0.000000 10.928000 -31.475000 -14.613000 # C 
365 1 1 0.000000 11.427000 -30.903999 -15.936000 # C 
366 1 5 0.000000 11.032000 -29.806000 -16.326000 # O 
367 1 1 0.000000 11.171000 -30.482000 -13.472000 # C 
368 1 1 0.000000 10.456000 -30.836000 -12.202000 # C 
369 1 1 0.000000 9.121000 -31.202999 -12.219000 # C 
370 1 1 0.000000 11.118000 -30.798000 -10.988000 # C 
371 1 1 0.000000 8.464000 -31.532000 -11.044000 # C 
372 1 1 0.000000 10.466000 -31.124001 -9.815000 # C 
373 1 1 0.000000 9.140000 -31.493999 -9.841000 # C 
374 1 4 0.000000 12.275000 -31.653999 -16.632000 # N 
375 1 1 0.000000 12.837000 -31.204000 -17.910000 # C 
376 1 1 0.000000 11.789000 -30.919001 -18.976999 # C 
377 1 5 0.000000 12.030000 -30.134001 -19.898001 # O 
378 1 1 0.000000 13.830000 -32.230999 -18.458000 # C 
379 1 1 0.000000 15.208000 -32.152000 -17.851000 # C 
380 1 1 0.000000 16.132000 -33.168999 -18.499001 # C 
381 1 1 0.000000 17.502001 -33.171001 -17.849001 # C 
382 1 4 0.000000 18.360001 -34.271000 -18.375999 # N 
383 1 4 0.000000 10.640000 -31.575001 -18.865999 # N 
384 1 1 0.000000 9.572000 -31.436001 -19.851000 # C 
385 1 1 0.000000 8.846000 -30.108999 -19.687000 # C 
386 1 5 0.000000 8.070000 -29.707001 -20.556000 # O 
387 1 1 0.000000 8.562000 -32.568001 -19.690001 # C 
388 1 1 0.000000 7.795000 -32.499001 -18.408001 # C 
389 1 4 0.000000 8.304000 -32.959999 -17.212000 # N 
390 1 1 0.000000 6.566000 -32.002998 -18.128000 # C 
391 1 1 0.000000 7.417000 -32.762001 -16.254000 # C 
392 1 4 0.000000 6.354000 -32.181999 -16.783001 # N 
393 1 4 0.000000 9.075000 -29.441000 -18.562000 # N 
394 1 1 0.000000 8.437000 -28.160000 -18.311001 # C 
395 1 1 0.000000 9.103000 -27.097000 -19.165001 # C 
396 1 5 0.000000 10.180000 -26.601000 -18.841000 # O 
397 1 1 0.000000 8.501000 -27.794001 -16.829000 # C 
398 1 1 0.000000 7.702000 -28.723000 -15.913000 # C 
399 1 1 0.000000 7.914000 -28.344999 -14.463000 # C 
400 1 1 0.000000 6.219000 -28.695000 -16.254999 # C 
401 1 4 0.000000 8.450000 -26.757000 -20.268000 # N 
402 1 1 0.000000 9.036000 -25.861000 -21.253000 # C 
403 1 1 0.000000 8.609000 -24.409000 -21.087999 # C 
404 1 5 0.000000 9.185000 -23.518999 -21.709000 # O 
405 1 1 0.000000 8.723000 -26.344000 -22.667999 # C 
406 1 1 0.000000 9.623000 -27.473000 -23.148001 # C 
407 1 1 0.000000 11.064000 -26.995001 -23.290001 # C 
408 1 1 0.000000 11.933000 -28.031000 -23.986000 # C 
409 1 4 0.000000 13.283000 -27.489000 -24.301001 # N 
410 1 4 0.000000 7.600000 -24.171000 -20.257999 # N 
411 1 1 0.000000 7.115000 -22.816999 -20.021000 # C 
412 1 1 0.000000 6.775000 -22.639000 -18.552999 # C 
413 1 5 0.000000 6.565000 -23.618000 -17.833000 # O 
414 1 1 0.000000 5.838000 -22.531000 -20.830000 # C 
415 1 5 0.000000 4.776000 -23.355000 -20.332001 # O 
416 1 1 0.000000 6.057000 -22.808001 -22.319000 # C 
417 1 4 0.000000 6.706000 -21.389000 -18.108000 # N 
418 1 1 0.000000 6.289000 -21.122999 -16.740999 # C 
419 1 1 0.000000 4.848000 -21.562000 -16.487000 # C 
420 1 5 0.000000 4.518000 -22.011000 -15.391000 # O 
421 1 1 0.000000 6.481000 -19.655001 -16.365999 # C 
422 1 1 0.000000 6.108000 -19.363001 -14.922000 # C 
423 1 1 0.000000 6.472000 -17.961000 -14.494000 # C 
424 1 5 0.000000 7.360000 -17.356001 -15.131000 # O 
425 1 5 0.000000 5.872000 -17.469999 -13.515000 # O 
426 1 4 0.000000 3.990000 -21.441999 -17.497000 # N 
427 1 1 0.000000 2.618000 -21.905001 -17.353001 # C 
428 1 1 0.000000 2.616000 -23.395000 -17.046000 # C 
429 1 5 0.000000 1.859000 -23.865000 -16.195000 # O 
430 1 1 0.000000 1.818000 -21.618999 -18.617001 # C 
431 1 4 0.000000 3.469000 -24.139999 -17.740000 # N 
432 1 1 0.000000 3.558000 -25.572001 -17.511000 # C 
433 1 1 0.000000 4.065000 -25.834999 -16.098000 # C 
434 1 5 0.000000 3.575000 -26.730000 -15.414000 # O 
435 1 1 0.000000 4.438000 -26.243000 -18.570000 # C 
436 1 1 0.000000 3.749000 -26.360001 -19.924000 # C 
437 1 1 0.000000 4.686000 -26.771000 -21.041000 # C 
438 1 5 0.000000 5.912000 -26.815001 -20.820000 # O 
439 1 5 0.000000 4.188000 -27.042999 -22.153000 # O 
440 1 4 0.000000 5.035000 -25.041000 -15.658000 # N 
441 1 1 0.000000 5.530000 -25.150999 -14.289000 # C 
442 1 1 0.000000 4.419000 -24.900999 -13.275000 # C 
443 1 5 0.000000 4.265000 -25.656000 -12.320000 # O 
444 1 1 0.000000 6.670000 -24.166000 -14.046000 # C 
445 1 1 0.000000 7.905000 -24.414000 -14.880000 # C 
446 1 6 0.000000 9.132000 -23.143000 -14.538000 # S 
447 1 1 0.000000 10.322000 -23.473000 -15.839000 # C 
448 1 4 0.000000 3.650000 -23.836000 -13.487000 # N 
449 1 1 0.000000 2.561000 -23.475000 -12.577000 # C 
450 1 1 0.000000 1.487000 -24.556999 -12.513000 # C 
451 1 5 0.000000 0.875000 -24.780001 -11.462000 # O 
452 1 1 0.000000 1.926000 -22.150999 -13.007000 # C 
453 1 1 0.000000 2.845000 -20.945999 -12.916000 # C 
454 1 1 0.000000 2.933000 -20.402000 -11.503000 # C 
455 1 1 0.000000 3.836000 -19.174999 -11.453000 # C 
456 1 4 0.000000 3.993000 -18.648001 -10.067000 # N 
457 1 4 0.000000 1.269000 -25.228001 -13.639000 # N 
458 1 1 0.000000 0.236000 -26.253000 -13.753000 # C 
459 1 1 0.000000 0.702000 -27.617001 -13.257000 # C 
460 1 5 0.000000 -0.092000 -28.548000 -13.150000 # O 
461 1 1 0.000000 -0.241000 -26.353001 -15.195000 # C 
462 1 4 0.000000 1.989000 -27.738001 -12.949000 # N 
463 1 1 0.000000 2.539000 -29.023001 -12.537000 # C 
464 1 1 0.000000 2.255000 -29.344000 -11.073000 # C 
465 1 5 0.000000 2.806000 -28.718000 -10.162000 # O 
466 1 1 0.000000 4.046000 -29.070999 -12.788000 # C 
467 1 5 0.000000 4.589000 -30.275999 -12.289000 # O 
468 1 4 0.000000 1.419000 -30.344999 -10.841000 # N 
469 1 1 0.000000 1.132000 -30.745001 -9.479000 # C 
470 1 1 0.000000 2.343000 -31.422001 -8.845000 # C 
471 1 5 0.000000 2.558000 -31.327000 -7.635000 # O 
472 1 1 0.000000 -0.113000 -31.629999 -9.423000 # C 
473 1 1 0.000000 -1.378000 -30.922001 -9.907000 # C 
474 1 1 0.000000 -1.707000 -29.681000 -9.088000 # C 
475 1 5 0.000000 -1.391000 -29.652000 -7.885000 # O 
476 1 5 0.000000 -2.300000 -28.731001 -9.645000 # O 
477 1 4 0.000000 3.163000 -32.074001 -9.662000 # N 
478 1 1 0.000000 4.344000 -32.728001 -9.128000 # C 
479 1 1 0.000000 5.394000 -31.719999 -8.692000 # C 
480 1 5 0.000000 6.138000 -31.965000 -7.743000 # O 
481 1 1 0.000000 4.957000 -33.712002 -10.116000 # C 
482 1 1 0.000000 5.888000 -34.679001 -9.431000 # C 
483 1 5 0.000000 5.427000 -35.340000 -8.479000 # O 
484 1 5 0.000000 7.075000 -34.758999 -9.811000 # O 
485 1 4 0.000000 5.463000 -30.586000 -9.380000 # N 
486 1 1 0.000000 6.373000 -29.527000 -8.975000 # C 
487 1 1 0.000000 6.377000 -29.528000 -8.969000 # C 
488 1 1 0.000000 5.968000 -28.986000 -7.602000 # C 
489 1 5 0.000000 6.809000 -28.754000 -6.737000 # O 
490 1 1 0.000000 6.418000 -28.417999 -10.030000 # C 
491 1 1 0.000000 6.448000 -28.407000 -10.010000 # C 
492 1 1 0.000000 7.431000 -27.292999 -9.812000 # C 
493 1 1 0.000000 7.469000 -27.304001 -9.709000 # C 
494 1 1 0.000000 7.864000 -26.709999 -11.148000 # C 
495 1 1 0.000000 8.846000 -27.896999 -9.438000 # C 
496 1 1 0.000000 6.845000 -26.224001 -8.908000 # C 
497 1 1 0.000000 7.528000 -26.305000 -10.851000 # C 
498 1 4 0.000000 4.669000 -28.804001 -7.397000 # N 
499 1 1 0.000000 4.162000 -28.367001 -6.096000 # C 
500 1 1 0.000000 4.150000 -28.379000 -6.103000 # C 
501 1 1 0.000000 4.518000 -29.395000 -5.027000 # C 
502 1 5 0.000000 4.939000 -29.039000 -3.930000 # O 
503 1 1 0.000000 2.642000 -28.157000 -6.125000 # C 
504 1 1 0.000000 2.633000 -28.240000 -6.182000 # C 
505 1 1 0.000000 2.155000 -26.947001 -6.912000 # C 
506 1 1 0.000000 1.987000 -27.742001 -4.917000 # C 
507 1 1 0.000000 0.631000 -26.865999 -6.838000 # C 
508 1 1 0.000000 0.478000 -27.719999 -5.092000 # C 
509 1 1 0.000000 0.027000 -26.198999 -8.058000 # C 
510 1 1 0.000000 -0.087000 -26.339001 -4.817000 # C 
511 1 4 0.000000 -1.419000 -26.531000 -8.179000 # N 
512 1 4 0.000000 -1.463000 -26.173000 -5.366000 # N 
513 1 4 0.000000 4.342000 -30.669001 -5.353000 # N 
514 1 1 0.000000 4.698000 -31.747999 -4.452000 # C 
515 1 1 0.000000 6.177000 -31.680000 -4.065000 # C 
516 1 5 0.000000 6.532000 -31.777000 -2.884000 # O 
517 1 1 0.000000 4.364000 -33.083000 -5.111000 # C 
518 1 1 0.000000 4.631000 -34.305000 -4.263000 # C 
519 1 1 0.000000 4.291000 -35.555000 -5.073000 # C 
520 1 1 0.000000 4.541000 -36.831001 -4.307000 # C 
521 1 4 0.000000 4.275000 -38.022999 -5.168000 # N 
522 1 4 0.000000 7.049000 -31.513000 -5.053000 # N 
523 1 1 0.000000 8.454000 -31.399000 -4.727000 # C 
524 1 1 0.000000 8.755000 -30.160999 -3.881000 # C 
525 1 5 0.000000 9.583000 -30.198999 -2.977000 # O 
526 1 1 0.000000 9.356000 -31.445999 -5.952000 # C 
527 1 1 0.000000 10.781000 -31.693001 -5.590000 # C 
528 1 4 0.000000 11.198000 -32.889000 -5.050000 # N 
529 1 1 0.000000 11.866000 -30.885000 -5.604000 # C 
530 1 1 0.000000 12.488000 -32.818001 -4.777000 # C 
531 1 4 0.000000 12.918000 -31.612000 -5.102000 # N 
532 1 4 0.000000 8.062000 -29.065001 -4.156000 # N 
533 1 1 0.000000 8.225000 -27.865000 -3.343000 # C 
534 1 1 0.000000 7.881000 -28.122999 -1.886000 # C 
535 1 5 0.000000 8.546000 -27.624001 -0.978000 # O 
536 1 4 0.000000 6.835000 -28.909000 -1.660000 # N 
537 1 1 0.000000 6.452000 -29.296000 -0.308000 # C 
538 1 1 0.000000 7.538000 -30.143999 0.364000 # C 
539 1 5 0.000000 7.857000 -29.941000 1.533000 # O 
540 1 1 0.000000 5.121000 -30.058001 -0.319000 # C 
541 1 5 0.000000 4.086000 -29.167000 -0.749000 # O 
542 1 1 0.000000 4.800000 -30.580999 1.073000 # C 
543 1 4 0.000000 8.098000 -31.093000 -0.375000 # N 
544 1 1 0.000000 9.153000 -31.941999 0.161000 # C 
545 1 1 0.000000 10.372000 -31.089001 0.540000 # C 
546 1 5 0.000000 10.939000 -31.225000 1.633000 # O 
547 1 1 0.000000 9.525000 -33.050999 -0.845000 # C 
548 1 1 0.000000 10.827000 -33.740002 -0.447000 # C 
549 1 1 0.000000 8.392000 -34.080002 -0.943000 # C 
550 1 4 0.000000 10.756000 -30.186001 -0.355000 # N 
551 1 1 0.000000 11.906000 -29.325001 -0.116000 # C 
552 1 1 0.000000 11.713000 -28.424000 1.109000 # C 
553 1 5 0.000000 12.548000 -28.386999 2.017000 # O 
554 1 1 0.000000 12.212000 -28.480000 -1.372000 # C 
555 1 1 0.000000 13.215000 -27.372999 -1.060000 # C 
556 1 1 0.000000 12.699000 -29.379000 -2.502000 # C 
557 1 4 0.000000 10.600000 -27.695999 1.155000 # N 
558 1 1 0.000000 10.412000 -26.764000 2.260000 # C 
559 1 1 0.000000 10.138000 -27.464001 3.587000 # C 
560 1 5 0.000000 10.487000 -26.945999 4.644000 # O 