LAMMPS data file. CGCMM style. atom_style full generated by VMD/TopoTools v1.7 on Tue Mar 18 16:48:54 MSK 2025
 4779 atoms
 4699 bonds
 0 angles
 0 dihedrals
 0 impropers
 6 atom types
 1 bond types
 0 angle types
 0 dihedral types
 0 improper types
 -0.500000 0.500000  xlo xhi
 -0.500000 0.500000  ylo yhi
 -0.500000 0.500000  zlo zhi

# Pair Coeffs
#
# 1  C
# 2  Fe
# 3  N
# 4  O
# 5  P
# 6  S

# Bond Coeffs
#
# 1  

 Masses

 1 12.010700 # C
 2 55.845001 # Fe
 3 14.006700 # N
 4 15.999400 # O
 5 30.973761 # P
 6 32.064999 # S

 Atoms # full

1 1 3 0.000000 19.205999 29.437000 42.865002 # N 
2 1 1 0.000000 20.110001 30.509001 42.508999 # C 
3 1 1 0.000000 21.573999 30.054001 42.654999 # C 
4 1 4 0.000000 21.993999 29.507000 43.686001 # O 
5 1 1 0.000000 19.813999 31.639000 43.472000 # C 
6 1 1 0.000000 20.400999 32.946999 42.946999 # C 
7 1 1 0.000000 18.302000 31.740999 43.687000 # C 
8 1 3 0.000000 22.334999 30.304001 41.625000 # N 
9 1 1 0.000000 23.767000 29.999001 41.741001 # C 
10 1 1 0.000000 24.466000 31.150999 42.512001 # C 
11 1 4 0.000000 24.393999 32.313000 42.102001 # O 
12 1 1 0.000000 24.356001 29.941999 40.319000 # C 
13 1 1 0.000000 23.837999 28.827000 39.433998 # C 
14 1 1 0.000000 24.511000 28.781000 38.041000 # C 
15 1 1 0.000000 23.961000 27.502001 40.173000 # C 
16 1 3 0.000000 25.097000 30.830000 43.596001 # N 
17 1 1 0.000000 25.917000 31.795000 44.340000 # C 
18 1 1 0.000000 27.177000 32.080002 43.523998 # C 
19 1 4 0.000000 27.480000 31.365999 42.566002 # O 
20 1 1 0.000000 26.323999 31.129000 45.666000 # C 
21 1 4 0.000000 27.292999 30.131001 45.459000 # O 
22 1 3 0.000000 27.921000 33.144001 43.839001 # N 
23 1 1 0.000000 29.160000 33.480000 43.102001 # C 
24 1 1 0.000000 30.188999 32.377998 43.243999 # C 
25 1 4 0.000000 30.922001 32.089001 42.287998 # O 
26 1 1 0.000000 29.757000 34.738998 43.736000 # C 
27 1 1 0.000000 28.636999 35.286999 44.598000 # C 
28 1 1 0.000000 27.573999 34.193001 44.793999 # C 
29 1 3 0.000000 30.177999 31.768000 44.449001 # N 
30 1 1 0.000000 31.077000 30.658001 44.691002 # C 
31 1 1 0.000000 30.672001 29.489000 43.756001 # C 
32 1 4 0.000000 31.563000 28.854000 43.175999 # O 
33 1 1 0.000000 31.056999 30.260000 46.195000 # C 
34 1 3 0.000000 29.334000 29.236000 43.597000 # N 
35 1 1 0.000000 28.955999 28.212000 42.605999 # C 
36 1 1 0.000000 29.514999 28.538000 41.226002 # C 
37 1 4 0.000000 30.011000 27.597000 40.570999 # O 
38 1 1 0.000000 27.474001 28.020000 42.459000 # C 
39 1 1 0.000000 26.834999 27.416000 43.695000 # C 
40 1 4 0.000000 27.429001 26.523001 44.312000 # O 
41 1 4 0.000000 25.743999 27.888000 44.009998 # O 
42 1 3 0.000000 29.414000 29.820000 40.855000 # N 
43 1 1 0.000000 29.902000 30.162001 39.484001 # C 
44 1 1 0.000000 31.402000 29.955000 39.303001 # C 
45 1 4 0.000000 31.851000 29.469000 38.247002 # O 
46 1 1 0.000000 29.496000 31.577999 39.153000 # C 
47 1 1 0.000000 28.000000 31.747000 39.327999 # C 
48 1 1 0.000000 27.618999 33.202000 39.102001 # C 
49 1 1 0.000000 26.299999 33.500999 39.770000 # C 
50 1 3 0.000000 26.058001 34.929001 39.589001 # N 
51 1 3 0.000000 32.134998 30.260000 40.395000 # N 
52 1 1 0.000000 33.588001 30.031000 40.367001 # C 
53 1 1 0.000000 33.915001 28.549000 40.206001 # C 
54 1 4 0.000000 34.799000 28.190001 39.418999 # O 
55 1 1 0.000000 34.180000 30.597000 41.674000 # C 
56 1 4 0.000000 34.015999 31.993000 41.653000 # O 
57 1 1 0.000000 35.646000 30.294001 41.784000 # C 
58 1 3 0.000000 33.167000 27.705999 40.948002 # N 
59 1 1 0.000000 33.319000 26.260000 40.908001 # C 
60 1 1 0.000000 33.009998 25.639000 39.515999 # C 
61 1 4 0.000000 33.700001 24.749001 39.048000 # O 
62 1 1 0.000000 32.455002 25.601000 41.999001 # C 
63 1 1 0.000000 32.987999 25.893999 43.416000 # C 
64 1 4 0.000000 34.125000 26.330000 43.623001 # O 
65 1 3 0.000000 32.148998 25.662001 44.396999 # N 
66 1 3 0.000000 31.934999 26.073000 38.908001 # N 
67 1 1 0.000000 31.552999 25.572001 37.597000 # C 
68 1 1 0.000000 32.604000 26.013000 36.550999 # C 
69 1 4 0.000000 33.018002 25.216999 35.693001 # O 
70 1 1 0.000000 30.159000 26.101000 37.285999 # C 
71 1 1 0.000000 29.753000 25.723000 35.876999 # C 
72 1 1 0.000000 29.112000 25.624001 38.252998 # C 
73 1 3 0.000000 33.007000 27.277000 36.639999 # N 
74 1 1 0.000000 34.050999 27.790001 35.682999 # C 
75 1 1 0.000000 35.370998 27.030001 35.827999 # C 
76 1 4 0.000000 36.051998 26.716999 34.833000 # O 
77 1 1 0.000000 34.292999 29.254999 35.882000 # C 
78 1 1 0.000000 33.101002 29.950001 35.344002 # C 
79 1 1 0.000000 33.130001 31.438000 35.596001 # C 
80 1 1 0.000000 31.900000 32.062000 34.917999 # C 
81 1 3 0.000000 31.864000 33.514000 35.155998 # N 
82 1 3 0.000000 35.650002 26.659000 37.050999 # N 
83 1 1 0.000000 36.924000 26.041000 37.196999 # C 
84 1 1 0.000000 36.852001 24.599001 36.717999 # C 
85 1 4 0.000000 37.757000 24.073000 36.062000 # O 
86 1 1 0.000000 37.263000 26.045000 38.686001 # C 
87 1 3 0.000000 35.755001 23.955999 37.016998 # N 
88 1 1 0.000000 35.702000 22.563999 36.590000 # C 
89 1 1 0.000000 35.576000 22.426001 35.042000 # C 
90 1 4 0.000000 36.096001 21.493999 34.396000 # O 
91 1 1 0.000000 34.457001 21.981001 37.271999 # C 
92 1 3 0.000000 34.797001 23.355000 34.486000 # N 
93 1 1 0.000000 34.493999 23.179001 33.070000 # C 
94 1 1 0.000000 35.743000 23.612000 32.284000 # C 
95 1 4 0.000000 36.057999 23.115000 31.188000 # O 
96 1 1 0.000000 33.234001 24.014000 32.771000 # C 
97 1 1 0.000000 32.672001 23.660000 31.417000 # C 
98 1 1 0.000000 32.828999 24.351999 30.195999 # C 
99 1 1 0.000000 31.885000 22.532000 31.132999 # C 
100 1 3 0.000000 32.134998 23.653000 29.181999 # N 
101 1 1 0.000000 31.582001 22.555000 29.738001 # C 
102 1 1 0.000000 31.431999 21.507000 31.931999 # C 
103 1 1 0.000000 30.855000 21.583000 29.091000 # C 
104 1 1 0.000000 30.688000 20.517000 31.278000 # C 
105 1 1 0.000000 30.419001 20.552000 29.898001 # C 
106 1 3 0.000000 36.458000 24.518999 32.935001 # N 
107 1 1 0.000000 37.754002 24.962000 32.401001 # C 
108 1 1 0.000000 38.638000 23.733000 32.185001 # C 
109 1 4 0.000000 39.217999 23.594000 31.097000 # O 
110 1 3 0.000000 38.709999 22.879000 33.192001 # N 
111 1 1 0.000000 39.477001 21.620001 33.123001 # C 
112 1 1 0.000000 38.952999 20.715000 32.007000 # C 
113 1 4 0.000000 39.734001 19.947001 31.436001 # O 
114 1 1 0.000000 39.467999 20.820000 34.448002 # C 
115 1 1 0.000000 40.463001 19.645000 34.380001 # C 
116 1 1 0.000000 41.950001 20.069000 34.354000 # C 
117 1 1 0.000000 42.881001 18.896999 33.999001 # C 
118 1 3 0.000000 42.533001 17.719000 34.792000 # N 
119 1 3 0.000000 37.641998 20.820000 31.733999 # N 
120 1 1 0.000000 37.006001 19.878000 30.836000 # C 
121 1 1 0.000000 37.599998 20.246000 29.485001 # C 
122 1 4 0.000000 38.063000 19.358000 28.777000 # O 
123 1 1 0.000000 35.485001 19.934000 30.877001 # C 
124 1 1 0.000000 34.900002 19.479000 29.562000 # C 
125 1 1 0.000000 34.846001 19.252001 32.112999 # C 
126 1 3 0.000000 37.650002 21.563000 29.278999 # N 
127 1 1 0.000000 38.289001 22.159000 28.106001 # C 
128 1 1 0.000000 37.803001 21.492001 26.823000 # C 
129 1 4 0.000000 36.627998 21.622999 26.438999 # O 
130 1 3 0.000000 38.738998 20.759001 26.257999 # N 
131 1 1 0.000000 38.650002 20.377001 24.848000 # C 
132 1 1 0.000000 38.013000 19.000999 24.711000 # C 
133 1 4 0.000000 37.661999 18.552999 23.611000 # O 
134 1 1 0.000000 40.058998 20.414000 24.212000 # C 
135 1 3 0.000000 37.808998 18.364000 25.837000 # N 
136 1 1 0.000000 37.173000 17.055000 25.868000 # C 
137 1 1 0.000000 35.657001 17.219000 25.966000 # C 
138 1 4 0.000000 34.969002 16.219000 26.174000 # O 
139 1 1 0.000000 37.590000 16.340000 27.127001 # C 
140 1 1 0.000000 39.071999 15.991000 27.099001 # C 
141 1 3 0.000000 39.627998 15.072000 26.181999 # N 
142 1 1 0.000000 40.056999 16.483999 27.893000 # C 
143 1 1 0.000000 41.000000 15.006000 26.441000 # C 
144 1 3 0.000000 41.265999 15.873000 27.495001 # N 
145 1 3 0.000000 35.202999 18.450001 25.825001 # N 
146 1 1 0.000000 33.800999 18.690001 26.190001 # C 
147 1 1 0.000000 32.896999 17.798000 25.318001 # C 
148 1 4 0.000000 31.965000 17.160999 25.809000 # O 
149 1 1 0.000000 33.445999 20.188000 26.177999 # C 
150 1 3 0.000000 33.221001 17.698000 24.063999 # N 
151 1 1 0.000000 32.382000 16.920000 23.188999 # C 
152 1 1 0.000000 32.467999 15.423000 23.424000 # C 
153 1 4 0.000000 31.495001 14.715000 23.202000 # O 
154 1 3 0.000000 33.618000 14.937000 23.802000 # N 
155 1 1 0.000000 33.797001 13.497000 24.042000 # C 
156 1 1 0.000000 33.021000 13.164000 25.348000 # C 
157 1 4 0.000000 32.439999 12.088000 25.493999 # O 
158 1 1 0.000000 35.320000 13.384000 24.167000 # C 
159 1 1 0.000000 35.962002 12.022000 24.285000 # C 
160 1 1 0.000000 37.431999 12.325000 24.655001 # C 
161 1 4 0.000000 37.792000 12.028000 25.816000 # O 
162 1 4 0.000000 38.158001 12.927000 23.830999 # O 
163 1 3 0.000000 33.066002 14.083000 26.280001 # N 
164 1 1 0.000000 32.380001 13.899000 27.548000 # C 
165 1 1 0.000000 30.877001 13.954000 27.309000 # C 
166 1 4 0.000000 30.153999 13.193000 27.957001 # O 
167 1 1 0.000000 32.722000 14.947000 28.631001 # C 
168 1 1 0.000000 34.167000 14.785000 29.166000 # C 
169 1 1 0.000000 34.680000 15.618000 30.129000 # C 
170 1 1 0.000000 34.948002 13.768000 28.665001 # C 
171 1 1 0.000000 35.997002 15.456000 30.565001 # C 
172 1 1 0.000000 36.257000 13.598000 29.086000 # C 
173 1 1 0.000000 36.778000 14.464000 30.032000 # C 
174 1 4 0.000000 38.127998 14.445000 30.285000 # O 
175 1 3 0.000000 30.437000 14.911000 26.471001 # N 
176 1 1 0.000000 29.011000 14.985000 26.059999 # C 
177 1 1 0.000000 28.521000 13.657000 25.465000 # C 
178 1 4 0.000000 27.420000 13.190000 25.764999 # O 
179 1 3 0.000000 29.271999 13.035000 24.569000 # N 
180 1 1 0.000000 28.830000 11.769000 24.042999 # C 
181 1 1 0.000000 28.785000 10.609000 25.049999 # C 
182 1 4 0.000000 27.917999 9.733000 25.035999 # O 
183 1 1 0.000000 29.781000 11.336000 22.978001 # C 
184 1 3 0.000000 29.785999 10.603000 25.915001 # N 
185 1 1 0.000000 29.823000 9.566000 26.931999 # C 
186 1 1 0.000000 28.614000 9.715000 27.865000 # C 
187 1 4 0.000000 28.007999 8.704000 28.212999 # O 
188 1 1 0.000000 31.167000 9.716000 27.687000 # C 
189 1 1 0.000000 31.231001 8.715000 28.822001 # C 
190 1 1 0.000000 32.529999 8.804000 29.655001 # C 
191 1 4 0.000000 32.443001 8.537000 30.850000 # O 
192 1 4 0.000000 33.601002 9.083000 29.103001 # O 
193 1 3 0.000000 28.253000 10.934000 28.267000 # N 
194 1 1 0.000000 27.087999 11.108000 29.153000 # C 
195 1 1 0.000000 25.820999 10.619000 28.444000 # C 
196 1 4 0.000000 24.917000 10.046000 29.059000 # O 
197 1 1 0.000000 26.909000 12.581000 29.488001 # C 
198 1 3 0.000000 25.730000 10.921000 27.117001 # N 
199 1 1 0.000000 24.537001 10.376000 26.375000 # C 
200 1 1 0.000000 24.493999 8.852000 26.410000 # C 
201 1 4 0.000000 23.436001 8.263000 26.664000 # O 
202 1 1 0.000000 24.533001 10.847000 24.877001 # C 
203 1 1 0.000000 24.384001 12.349000 24.750000 # C 
204 1 1 0.000000 24.693001 12.740000 23.316999 # C 
205 1 1 0.000000 22.931999 12.670000 25.093000 # C 
206 1 3 0.000000 25.631001 8.213000 26.099001 # N 
207 1 1 0.000000 25.649000 6.748000 26.118999 # C 
208 1 1 0.000000 25.343000 6.185000 27.517000 # C 
209 1 4 0.000000 24.677000 5.157000 27.618000 # O 
210 1 1 0.000000 26.990999 6.286000 25.624001 # C 
211 1 1 0.000000 27.142000 4.805000 25.766001 # C 
212 1 1 0.000000 28.424999 4.363000 25.035000 # C 
213 1 4 0.000000 29.332001 5.191000 24.834000 # O 
214 1 4 0.000000 28.497999 3.168000 24.724001 # O 
215 1 3 0.000000 25.823000 6.881000 28.563999 # N 
216 1 1 0.000000 25.476999 6.460000 29.931000 # C 
217 1 1 0.000000 23.966999 6.524000 30.171000 # C 
218 1 4 0.000000 23.417000 5.570000 30.763000 # O 
219 1 1 0.000000 26.212000 7.241000 30.986000 # C 
220 1 1 0.000000 27.709000 6.912000 31.003000 # C 
221 1 1 0.000000 28.434000 7.812000 31.999001 # C 
222 1 3 0.000000 29.917000 7.541000 32.133999 # N 
223 1 1 0.000000 30.433001 6.503000 32.764999 # C 
224 1 3 0.000000 29.677999 5.610000 33.415001 # N 
225 1 3 0.000000 31.750000 6.331000 32.660000 # N 
226 1 3 0.000000 23.389999 7.625000 29.684999 # N 
227 1 1 0.000000 21.954000 7.806000 29.819000 # C 
228 1 1 0.000000 21.160999 6.717000 29.077000 # C 
229 1 4 0.000000 20.221001 6.121000 29.622999 # O 
230 1 1 0.000000 21.566000 9.196000 29.326000 # C 
231 1 1 0.000000 20.080000 9.521000 29.480000 # C 
232 1 6 0.000000 19.646999 11.131000 28.804001 # S 
233 1 1 0.000000 19.879999 10.730000 27.082001 # C 
234 1 3 0.000000 21.486000 6.449000 27.841000 # N 
235 1 1 0.000000 20.716999 5.424000 27.059000 # C 
236 1 1 0.000000 20.826000 4.050000 27.657000 # C 
237 1 4 0.000000 19.881001 3.287000 27.551001 # O 
238 1 1 0.000000 21.219000 5.296000 25.653000 # C 
239 1 1 0.000000 21.045000 6.584000 24.844000 # C 
240 1 1 0.000000 19.909000 7.342000 24.937000 # C 
241 1 1 0.000000 22.069000 6.991000 24.000000 # C 
242 1 1 0.000000 19.770000 8.513000 24.193001 # C 
243 1 1 0.000000 21.931999 8.179000 23.249001 # C 
244 1 1 0.000000 20.788000 8.932000 23.346001 # C 
245 1 3 0.000000 21.975000 3.743000 28.327999 # N 
246 1 1 0.000000 22.098000 2.400000 28.917000 # C 
247 1 1 0.000000 21.443001 2.351000 30.305000 # C 
248 1 4 0.000000 20.895000 1.315000 30.669001 # O 
249 1 1 0.000000 23.542999 2.052000 29.125000 # C 
250 1 1 0.000000 24.278999 1.824000 27.827999 # C 
251 1 1 0.000000 25.775999 1.499000 28.004999 # C 
252 1 1 0.000000 23.563999 0.744000 27.075001 # C 
253 1 3 0.000000 21.518999 3.434000 31.094000 # N 
254 1 1 0.000000 21.077000 3.329000 32.471001 # C 
255 1 1 0.000000 19.584000 3.584000 32.583000 # C 
256 1 4 0.000000 18.910999 3.096000 33.501999 # O 
257 1 1 0.000000 21.733000 4.414000 33.333000 # C 
258 1 4 0.000000 23.065001 4.042000 33.567001 # O 
259 1 3 0.000000 19.129999 4.419000 31.641001 # N 
260 1 1 0.000000 17.726999 4.889000 31.577999 # C 
261 1 1 0.000000 17.171000 4.716000 30.171000 # C 
262 1 4 0.000000 16.993000 5.718000 29.424000 # O 
263 1 1 0.000000 17.587000 6.359000 32.034000 # C 
264 1 1 0.000000 18.302999 6.627000 33.368000 # C 
265 1 1 0.000000 19.500999 7.310000 33.382000 # C 
266 1 1 0.000000 17.733000 6.152000 34.548000 # C 
267 1 1 0.000000 20.166000 7.501000 34.590000 # C 
268 1 1 0.000000 18.396999 6.345000 35.769001 # C 
269 1 1 0.000000 19.605000 7.005000 35.784000 # C 
270 1 3 0.000000 16.843000 3.513000 29.855000 # N 
271 1 1 0.000000 16.412001 3.173000 28.471001 # C 
272 1 1 0.000000 15.195000 3.925000 27.983999 # C 
273 1 4 0.000000 15.015000 4.094000 26.764999 # O 
274 1 1 0.000000 16.236000 1.676000 28.410000 # C 
275 1 1 0.000000 16.294001 1.205000 29.840000 # C 
276 1 1 0.000000 16.952000 2.332000 30.657000 # C 
277 1 3 0.000000 14.399000 4.442000 28.905001 # N 
278 1 1 0.000000 13.219000 5.183000 28.409000 # C 
279 1 1 0.000000 13.631000 6.424000 27.620001 # C 
280 1 4 0.000000 12.868000 6.927000 26.798000 # O 
281 1 1 0.000000 12.313000 5.575000 29.613001 # C 
282 1 4 0.000000 13.011000 6.284000 30.584999 # O 
283 1 1 0.000000 11.793000 4.252000 30.184999 # C 
284 1 3 0.000000 14.822000 6.928000 27.882000 # N 
285 1 1 0.000000 15.255000 8.141000 27.167000 # C 
286 1 1 0.000000 15.487000 7.874000 25.663000 # C 
287 1 4 0.000000 15.500000 8.802000 24.870001 # O 
288 1 1 0.000000 16.528999 8.677000 27.809000 # C 
289 1 4 0.000000 17.639999 7.760000 27.764000 # O 
290 1 1 0.000000 16.313999 9.072000 29.267000 # C 
291 1 3 0.000000 15.602000 6.641000 25.302999 # N 
292 1 1 0.000000 15.849000 6.309000 23.915001 # C 
293 1 1 0.000000 14.588000 6.586000 23.068001 # C 
294 1 4 0.000000 14.661000 6.626000 21.851000 # O 
295 1 1 0.000000 16.176001 4.801000 23.768999 # C 
296 1 1 0.000000 17.540001 4.298000 24.226999 # C 
297 1 1 0.000000 17.434000 2.843000 23.860001 # C 
298 1 1 0.000000 17.865000 1.913000 24.881001 # C 
299 1 3 0.000000 17.725000 0.558000 24.357000 # N 
300 1 3 0.000000 13.437000 6.751000 23.702999 # N 
301 1 1 0.000000 12.212000 7.046000 22.971001 # C 
302 1 1 0.000000 12.302000 8.402000 22.268999 # C 
303 1 4 0.000000 11.477000 8.717000 21.391001 # O 
304 1 1 0.000000 10.997000 7.028000 23.910000 # C 
305 1 4 0.000000 11.133000 8.047000 24.886000 # O 
306 1 1 0.000000 10.746000 5.682000 24.565001 # C 
307 1 3 0.000000 13.249000 9.267000 22.649000 # N 
308 1 1 0.000000 13.341000 10.556000 21.936001 # C 
309 1 1 0.000000 14.327000 10.496000 20.736000 # C 
310 1 4 0.000000 14.402000 11.472000 19.989000 # O 
311 1 1 0.000000 13.819000 11.595000 22.902000 # C 
312 1 1 0.000000 12.721000 11.868000 23.938999 # C 
313 1 1 0.000000 11.684000 12.732000 23.677999 # C 
314 1 1 0.000000 12.775000 11.211000 25.162001 # C 
315 1 1 0.000000 10.700000 12.945000 24.615999 # C 
316 1 1 0.000000 11.779000 11.438000 26.106001 # C 
317 1 1 0.000000 10.742000 12.302000 25.830000 # C 
318 1 4 0.000000 9.773000 12.522000 26.768999 # O 
319 1 3 0.000000 15.069000 9.369000 20.624001 # N 
320 1 1 0.000000 16.056999 9.218000 19.552999 # C 
321 1 1 0.000000 15.789000 7.991000 18.691000 # C 
322 1 4 0.000000 16.724001 7.265000 18.341999 # O 
323 1 1 0.000000 17.424999 9.127000 20.195999 # C 
324 1 1 0.000000 17.844000 10.390000 20.995001 # C 
325 1 1 0.000000 17.490999 10.504000 22.327000 # C 
326 1 1 0.000000 18.547001 11.403000 20.410000 # C 
327 1 1 0.000000 17.858000 11.623000 23.054001 # C 
328 1 1 0.000000 18.930000 12.549000 21.127001 # C 
329 1 1 0.000000 18.573999 12.645000 22.474001 # C 
330 1 3 0.000000 14.571000 7.757000 18.263000 # N 
331 1 1 0.000000 14.296000 6.570000 17.420000 # C 
332 1 1 0.000000 14.939000 6.730000 16.000000 # C 
333 1 4 0.000000 15.161000 5.794000 15.249000 # O 
334 1 1 0.000000 12.805000 6.543000 17.308001 # C 
335 1 1 0.000000 12.435000 8.029000 17.337000 # C 
336 1 1 0.000000 13.379000 8.615000 18.368999 # C 
337 1 3 0.000000 15.314000 7.894000 15.638000 # N 
338 1 1 0.000000 15.922000 8.158000 14.318000 # C 
339 1 1 0.000000 17.450001 8.129000 14.320000 # C 
340 1 4 0.000000 18.038000 8.452000 13.288000 # O 
341 1 1 0.000000 15.495000 9.570000 13.875000 # C 
342 1 1 0.000000 15.809000 10.732000 14.839000 # C 
343 1 3 0.000000 15.413000 10.710000 16.195999 # N 
344 1 1 0.000000 16.497999 11.909000 14.601000 # C 
345 1 1 0.000000 15.844000 11.897000 16.789000 # C 
346 1 3 0.000000 16.524000 12.652000 15.790000 # N 
347 1 3 0.000000 18.080999 7.782000 15.494000 # N 
348 1 1 0.000000 19.527000 7.728000 15.621000 # C 
349 1 1 0.000000 20.011999 6.292000 15.616000 # C 
350 1 4 0.000000 19.354000 5.362000 16.118000 # O 
351 1 1 0.000000 19.983000 8.306000 16.971001 # C 
352 1 1 0.000000 20.277000 9.800000 16.937000 # C 
353 1 1 0.000000 21.120001 10.348000 17.875000 # C 
354 1 1 0.000000 19.719999 10.615000 15.994000 # C 
355 1 1 0.000000 21.396999 11.694000 17.885000 # C 
356 1 1 0.000000 19.992001 11.991000 15.990000 # C 
357 1 1 0.000000 20.832001 12.544000 16.938999 # C 
358 1 3 0.000000 21.212999 6.163000 15.060000 # N 
359 1 1 0.000000 21.941999 4.914000 15.347000 # C 
360 1 1 0.000000 22.533001 5.105000 16.756001 # C 
361 1 4 0.000000 23.423000 5.937000 16.930000 # O 
362 1 1 0.000000 23.087999 4.830000 14.344000 # C 
363 1 1 0.000000 23.921000 3.581000 14.559000 # C 
364 1 4 0.000000 23.528999 2.634000 15.247000 # O 
365 1 4 0.000000 24.995001 3.574000 13.964000 # O 
366 1 3 0.000000 22.007000 4.385000 17.674000 # N 
367 1 1 0.000000 22.495001 4.518000 19.011999 # C 
368 1 1 0.000000 23.555000 3.482000 19.350000 # C 
369 1 4 0.000000 23.746000 3.203000 20.542000 # O 
370 1 1 0.000000 21.356001 4.442000 20.054001 # C 
371 1 1 0.000000 20.326000 5.563000 19.919001 # C 
372 1 1 0.000000 19.153000 5.323000 20.893000 # C 
373 1 1 0.000000 20.875999 6.942000 20.032000 # C 
374 1 3 0.000000 24.257000 2.957000 18.351999 # N 
375 1 1 0.000000 25.304001 2.020000 18.753000 # C 
376 1 1 0.000000 26.532000 2.802000 19.216000 # C 
377 1 4 0.000000 26.702999 4.006000 18.940001 # O 
378 1 1 0.000000 25.559000 0.965000 17.684000 # C 
379 1 4 0.000000 25.833000 1.600000 16.479000 # O 
380 1 3 0.000000 27.358000 2.102000 20.002001 # N 
381 1 1 0.000000 28.482000 2.780000 20.621000 # C 
382 1 1 0.000000 29.378000 3.415000 19.573000 # C 
383 1 4 0.000000 29.778999 2.727000 18.618999 # O 
384 1 1 0.000000 29.306999 1.705000 21.356001 # C 
385 1 1 0.000000 30.590000 2.288000 21.955999 # C 
386 1 3 0.000000 30.575001 3.334000 22.868000 # N 
387 1 1 0.000000 31.896999 1.928000 21.736000 # C 
388 1 1 0.000000 31.868999 3.649000 23.215000 # C 
389 1 3 0.000000 32.688000 2.777000 22.511999 # N 
390 1 3 0.000000 29.641001 4.663000 19.728001 # N 
391 1 1 0.000000 30.605000 5.370000 18.896000 # C 
392 1 1 0.000000 29.995001 5.912000 17.601999 # C 
393 1 4 0.000000 30.719999 6.416000 16.736000 # O 
394 1 3 0.000000 28.688000 5.802000 17.481001 # N 
395 1 1 0.000000 28.084999 6.318000 16.235001 # C 
396 1 1 0.000000 28.332001 7.803000 16.059999 # C 
397 1 4 0.000000 28.379999 8.611000 16.997000 # O 
398 1 1 0.000000 26.597000 6.055000 16.200001 # C 
399 1 4 0.000000 25.898001 7.082000 16.834999 # O 
400 1 3 0.000000 28.490999 8.172000 14.805000 # N 
401 1 1 0.000000 28.690001 9.585000 14.477000 # C 
402 1 1 0.000000 27.527000 10.481000 14.963000 # C 
403 1 4 0.000000 27.771999 11.626000 15.344000 # O 
404 1 1 0.000000 28.757000 9.700000 12.937000 # C 
405 1 3 0.000000 26.290001 9.919000 14.966000 # N 
406 1 1 0.000000 25.146000 10.753000 15.342000 # C 
407 1 1 0.000000 25.259001 11.104000 16.827000 # C 
408 1 4 0.000000 24.922001 12.250000 17.160000 # O 
409 1 1 0.000000 23.843000 9.954000 15.165000 # C 
410 1 1 0.000000 23.292000 10.128000 13.749000 # C 
411 1 1 0.000000 22.368000 8.997000 13.303000 # C 
412 1 4 0.000000 22.653000 7.819000 13.529000 # O 
413 1 3 0.000000 21.379000 9.359000 12.492000 # N 
414 1 3 0.000000 25.642000 10.090000 17.632000 # N 
415 1 1 0.000000 25.795000 10.344000 19.096001 # C 
416 1 1 0.000000 26.976999 11.264000 19.408001 # C 
417 1 4 0.000000 26.875000 12.210000 20.191999 # O 
418 1 1 0.000000 25.900000 8.996000 19.825001 # C 
419 1 1 0.000000 26.306000 9.164000 21.291000 # C 
420 1 1 0.000000 24.577999 8.296000 19.705999 # C 
421 1 3 0.000000 28.106001 11.000000 18.767000 # N 
422 1 1 0.000000 29.240000 11.896000 18.938000 # C 
423 1 1 0.000000 28.896999 13.314000 18.545000 # C 
424 1 4 0.000000 29.275000 14.261000 19.250000 # O 
425 1 1 0.000000 30.471001 11.397000 18.195999 # C 
426 1 1 0.000000 31.004000 10.077000 18.737000 # C 
427 1 1 0.000000 32.355000 9.815000 18.003000 # C 
428 1 1 0.000000 33.169998 8.576000 18.445999 # C 
429 1 3 0.000000 34.411999 8.509000 17.627001 # N 
430 1 3 0.000000 28.209000 13.435000 17.403999 # N 
431 1 1 0.000000 27.805000 14.758000 16.917999 # C 
432 1 1 0.000000 26.872000 15.459000 17.915001 # C 
433 1 4 0.000000 27.089001 16.634001 18.259001 # O 
434 1 3 0.000000 25.893999 14.697000 18.396999 # N 
435 1 1 0.000000 24.959000 15.318000 19.351000 # C 
436 1 1 0.000000 25.646000 15.668000 20.709000 # C 
437 1 4 0.000000 25.378000 16.735001 21.283001 # O 
438 1 1 0.000000 23.785999 14.370000 19.493999 # C 
439 1 1 0.000000 22.659000 15.033000 20.304001 # C 
440 1 3 0.000000 22.105000 16.252001 19.971001 # N 
441 1 1 0.000000 22.047001 14.573000 21.420000 # C 
442 1 1 0.000000 21.153000 16.525000 20.934999 # C 
443 1 3 0.000000 21.120001 15.495000 21.809999 # N 
444 1 3 0.000000 26.530001 14.808000 21.131001 # N 
445 1 1 0.000000 27.368999 15.049000 22.368000 # C 
446 1 1 0.000000 28.094999 16.385000 22.312000 # C 
447 1 4 0.000000 28.110001 17.190001 23.268999 # O 
448 1 3 0.000000 28.672001 16.663000 21.134001 # N 
449 1 1 0.000000 29.403999 17.944000 20.914000 # C 
450 1 1 0.000000 28.452999 19.112000 20.962999 # C 
451 1 4 0.000000 28.802000 20.155001 21.504999 # O 
452 1 1 0.000000 30.070999 17.934000 19.530001 # C 
453 1 1 0.000000 31.041000 19.066999 19.261999 # C 
454 1 1 0.000000 31.625999 18.823999 17.851999 # C 
455 1 1 0.000000 32.792999 19.737000 17.398001 # C 
456 1 3 0.000000 33.407001 19.155001 16.124001 # N 
457 1 3 0.000000 27.268000 18.913000 20.407000 # N 
458 1 1 0.000000 26.287001 20.011000 20.434999 # C 
459 1 1 0.000000 25.823000 20.285000 21.851000 # C 
460 1 4 0.000000 25.681000 21.466999 22.184000 # O 
461 1 1 0.000000 25.030001 19.712000 19.632000 # C 
462 1 1 0.000000 25.231001 19.885000 18.125000 # C 
463 1 1 0.000000 23.976000 19.362000 17.452999 # C 
464 1 1 0.000000 24.023001 19.465000 15.943000 # C 
465 1 3 0.000000 22.941000 18.622999 15.396000 # N 
466 1 3 0.000000 25.656000 19.202999 22.591000 # N 
467 1 1 0.000000 25.221001 19.385000 24.007000 # C 
468 1 1 0.000000 26.285999 20.153999 24.830000 # C 
469 1 4 0.000000 26.020000 21.160000 25.506001 # O 
470 1 1 0.000000 24.868000 18.014999 24.570000 # C 
471 1 1 0.000000 24.656000 18.054001 26.090000 # C 
472 1 1 0.000000 23.538000 17.634001 23.934999 # C 
473 1 3 0.000000 27.481001 19.674000 24.636000 # N 
474 1 1 0.000000 28.666000 20.250999 25.288000 # C 
475 1 1 0.000000 28.893999 21.701000 24.892000 # C 
476 1 4 0.000000 29.181000 22.531000 25.756001 # O 
477 1 1 0.000000 29.846001 19.330000 24.922001 # C 
478 1 3 0.000000 28.716000 22.082001 23.622999 # N 
479 1 1 0.000000 28.882000 23.506001 23.306000 # C 
480 1 1 0.000000 27.844000 24.399000 23.952000 # C 
481 1 4 0.000000 28.172001 25.493000 24.405001 # O 
482 1 1 0.000000 28.825001 23.730000 21.801001 # C 
483 1 1 0.000000 30.132999 23.226999 21.157000 # C 
484 1 4 0.000000 31.073000 22.860001 21.895000 # O 
485 1 4 0.000000 30.160000 23.165001 19.922001 # O 
486 1 3 0.000000 26.601000 23.922001 24.002001 # N 
487 1 1 0.000000 25.566000 24.646000 24.702000 # C 
488 1 1 0.000000 25.921000 24.792999 26.194000 # C 
489 1 4 0.000000 25.691999 25.858999 26.768999 # O 
490 1 1 0.000000 24.233999 23.896000 24.518000 # C 
491 1 3 0.000000 26.473000 23.757999 26.788000 # N 
492 1 1 0.000000 26.853001 23.910000 28.195999 # C 
493 1 1 0.000000 27.993999 24.910999 28.320999 # C 
494 1 4 0.000000 28.018999 25.780001 29.214001 # O 
495 1 1 0.000000 27.236000 22.590000 28.816999 # C 
496 1 1 0.000000 26.016001 21.667999 29.025000 # C 
497 1 1 0.000000 26.375000 20.239000 29.375000 # C 
498 1 1 0.000000 24.886000 22.225000 29.889999 # C 
499 1 3 0.000000 28.903000 24.802000 27.409000 # N 
500 1 1 0.000000 29.987000 25.794001 27.422001 # C 
501 1 1 0.000000 29.466000 27.236000 27.271000 # C 
502 1 4 0.000000 29.889000 28.173000 27.986000 # O 
503 1 1 0.000000 30.959999 25.474001 26.292999 # C 
504 1 4 0.000000 31.568001 24.232000 26.507000 # O 
505 1 1 0.000000 31.999001 26.570999 26.115000 # C 
506 1 3 0.000000 28.521000 27.421000 26.364000 # N 
507 1 1 0.000000 27.862000 28.739000 26.242001 # C 
508 1 1 0.000000 27.208000 29.156000 27.569000 # C 
509 1 4 0.000000 27.294001 30.330000 27.931999 # O 
510 1 1 0.000000 26.790001 28.663000 25.150000 # C 
511 1 1 0.000000 26.054001 29.997999 24.916000 # C 
512 1 4 0.000000 26.601000 31.068001 25.091000 # O 
513 1 3 0.000000 24.836000 29.938000 24.403999 # N 
514 1 3 0.000000 26.586000 28.207001 28.309000 # N 
515 1 1 0.000000 25.900999 28.643999 29.513000 # C 
516 1 1 0.000000 26.917999 28.973000 30.604000 # C 
517 1 4 0.000000 26.629999 29.875000 31.384001 # O 
518 1 1 0.000000 25.059999 27.488001 29.983000 # C 
519 1 3 0.000000 28.035999 28.224001 30.691999 # N 
520 1 1 0.000000 29.079000 28.591999 31.697001 # C 
521 1 1 0.000000 29.650999 29.976000 31.386999 # C 
522 1 4 0.000000 29.871000 30.743999 32.317001 # O 
523 1 1 0.000000 30.139000 27.525999 31.690001 # C 
524 1 1 0.000000 31.412001 27.865000 32.464001 # C 
525 1 1 0.000000 29.582001 26.191000 32.212002 # C 
526 1 3 0.000000 29.820999 30.298000 30.091000 # N 
527 1 1 0.000000 30.311001 31.605000 29.674999 # C 
528 1 1 0.000000 29.355000 32.700001 30.091999 # C 
529 1 4 0.000000 29.818001 33.806999 30.368999 # O 
530 1 1 0.000000 30.486000 31.688000 28.173000 # C 
531 1 3 0.000000 28.070000 32.404999 30.108999 # N 
532 1 1 0.000000 27.091000 33.437000 30.375999 # C 
533 1 1 0.000000 26.250999 33.070999 31.577999 # C 
534 1 4 0.000000 25.030001 33.217999 31.500999 # O 
535 1 1 0.000000 26.122000 33.562000 29.193001 # C 
536 1 1 0.000000 26.937000 33.956001 27.965000 # C 
537 1 3 0.000000 27.197001 35.293999 27.643999 # N 
538 1 1 0.000000 27.538000 33.169998 27.007999 # C 
539 1 1 0.000000 27.973000 35.306999 26.485001 # C 
540 1 3 0.000000 28.200001 34.007999 26.069000 # N 
541 1 3 0.000000 26.902000 32.625000 32.624001 # N 
542 1 1 0.000000 26.198000 32.050999 33.744999 # C 
543 1 1 0.000000 25.304001 33.090000 34.383999 # C 
544 1 4 0.000000 24.264999 32.728001 34.931000 # O 
545 1 1 0.000000 27.256001 31.379999 34.629002 # C 
546 1 1 0.000000 28.132000 32.324001 35.438000 # C 
547 1 1 0.000000 26.732000 30.219999 35.460999 # C 
548 1 3 0.000000 25.642000 34.363998 34.226002 # N 
549 1 1 0.000000 24.860001 35.443001 34.834000 # C 
550 1 1 0.000000 23.625000 35.808998 34.008999 # C 
551 1 4 0.000000 22.795000 36.604000 34.459999 # O 
552 1 1 0.000000 25.768999 36.687000 34.985001 # C 
553 1 1 0.000000 26.820000 36.418999 36.081001 # C 
554 1 4 0.000000 26.378000 36.080002 37.175999 # O 
555 1 4 0.000000 28.042000 36.509998 35.847000 # O 
556 1 3 0.000000 23.493999 35.236000 32.851002 # N 
557 1 1 0.000000 22.455000 35.574001 31.858999 # C 
558 1 1 0.000000 21.981001 34.355999 31.042000 # C 
559 1 4 0.000000 21.792999 34.389999 29.813000 # O 
560 1 1 0.000000 23.195000 36.483002 30.884001 # C 
561 1 1 0.000000 22.176001 37.272999 30.099001 # C 
562 1 4 0.000000 21.247999 37.813000 30.728001 # O 
563 1 4 0.000000 22.311001 37.299000 28.865999 # O 
564 1 3 0.000000 21.806000 33.280998 31.705000 # N 
565 1 1 0.000000 21.493999 32.013000 31.000000 # C 
566 1 1 0.000000 20.164000 32.047001 30.236000 # C 
567 1 4 0.000000 20.118000 31.558001 29.112000 # O 
568 1 1 0.000000 21.407000 30.900000 32.033001 # C 
569 1 1 0.000000 22.773001 30.357000 32.339001 # C 
570 1 6 0.000000 22.597000 28.681999 33.004002 # S 
571 1 1 0.000000 22.700001 29.049999 34.735001 # C 
572 1 3 0.000000 19.089001 32.563000 30.812000 # N 