LAMMPS (7 Feb 2024 - Update 1)
OMP_NUM_THREADS environment is not set. Defaulting to 1 thread. (src/comm.cpp:98)
  using 1 OpenMP thread(s) per MPI task
units real
boundary p p p
atom_style full
read_data lmp.data
Reading data file ...
  orthogonal box = (-100 -100 -100) to (100 100 100)
  1 by 1 by 1 MPI processor grid
  reading atoms ...
  3282 atoms
  scanning bonds ...
  11 = max bonds/atom
  reading bonds ...
  3523 bonds
Finding 1-2 1-3 1-4 neighbors ...
  special bond factors lj:    0        0        0       
  special bond factors coul:  0        0        0       
    13 = max # of 1-2 neighbors
    81 = max # of 1-3 neighbors
   604 = max # of 1-4 neighbors
    41 = max # of special neighbors
  special bonds CPU = 0.012 seconds
  read_data CPU = 0.022 seconds

bond_style harmonic
angle_style charmm
dihedral_style charmm
improper_style harmonic
pair_style lj/cut/coul/long 5
# 1  C
# 2  Fe
# 3  H
# 4  N
# 5  O
# 6  S
pair_coeff 3 3 0.2 2.846
pair_coeff 5 5 0.2  2.85
pair_coeff 4 4 0.17 3.250
pair_coeff 1 1 0.12 3.30
pair_coeff 6 6 0.27 3.59
pair_coeff 2 2 0.013 2.32
pair_modify mix arithmetic
# kspace_style pppm 0.0001
# kspace_modify gewald
neigh_modify delay 1 every 1 check yes one 2000
bond_coeff 1 0 0

#make folder for the results:
variable results string "simulation_results"
variable el_results string "simulation_results_el"
shell rmdir ${results}
shell rmdir simulation_results
shell mkdir ${results}
shell mkdir simulation_results
shell cd ${results}
shell cd simulation_results

region ligand_region block 48.9 50.1 -42.1 -41.9 12.9 14.7 #xlo xhi ylo yhi zlo zhi
group ligand_group region ligand_region
1 atoms in group ligand_group
set group ligand_group charge -0.5
Setting atom values ...
  1 settings made for charge

set type 2 charge 50000
Setting atom values ...
  1 settings made for charge

dump 1 all custom 100 dmp.*.txt id type x y z mass

#thermo_style custom step temp press lx ke pe etotal density
#thermo          100
#energy minimisation:
minimize 0.0 0.0 1000 10000
Switching to 'neigh_modify every 1 delay 0 check yes' setting during minimization
ERROR: Pair style requires a KSpace style (src/KSPACE/pair_lj_cut_coul_long.cpp:673)
Last command: minimize 0.0 0.0 1000 10000
